                         Program Version 4.2.0 -  RELEASE  -
|  1> #
|  2> # Ag01N0_F ri-B2PLYP-D3BJ/Def2-TZVPPD
|  3> #
|  4> ! rijk ri-b2plyp d3bj def2-tzvppd def2/jk def2-tzvppd/c grid4 nofinalgrid opt xyzfile numfreq
|  5>
|  6> *xyz 0 1
|  7> Ag       0.000000    0.000000    0.317712
|  8> F        0.000000    0.000000   -1.659163
|  9> *
| 10>
| 11> %maxcore 5000
| 12>
| 13> %pal
| 14> nprocs = 24
| 15> end
| 16>
| 17>
| 18>                          ****END OF INPUT****
 Total Charge           Charge          ....    0
 Multiplicity           Mult            ....    1
 Number of Electrons    NEL             ....   28
Dispersion correction            ... done
MP2 TOTAL ENERGY:     -246.731784912 Eh
Dispersion correction           -0.000455369
FINAL SINGLE POINT ENERGY      -246.732240280865
Dispersion correction            ... done
MP2 TOTAL ENERGY:     -246.731814376 Eh
Dispersion correction           -0.000455325
FINAL SINGLE POINT ENERGY      -246.732269700530
FINAL SINGLE POINT ENERGY      -246.732305929142
Dispersion correction            ... done
MP2 TOTAL ENERGY:     -246.731850850 Eh
Dispersion correction           -0.000455201
FINAL SINGLE POINT ENERGY      -246.732306051297
                    ***********************HURRAY********************

CARTESIAN COORDINATES (ANGSTROEM)
---------------------------------
  Ag     0.000000    0.000000    0.325298
  F      0.000000    0.000000   -1.666749

 Multiplicity           Mult            ....    1
 Number of Electrons    NEL             ....   28
 Basis Dimension        Dim             ....   96

ORBITAL ENERGIES
----------------

  NO   OCC          E(Eh)            E(eV)
   0   2.0000     -25.213737      -686.1007
   1   2.0000      -4.014941      -109.2521
   2   2.0000      -2.550747       -69.4093
   3   2.0000      -2.550747       -69.4093
   4   2.0000      -2.550409       -69.4001
   5   2.0000      -1.175965       -31.9996
   6   2.0000      -0.473703       -12.8901
   7   2.0000      -0.453016       -12.3272
   8   2.0000      -0.453016       -12.3272
   9   2.0000      -0.438589       -11.9346
  10   2.0000      -0.438589       -11.9346
  11   2.0000      -0.361161        -9.8277
  12   2.0000      -0.361161        -9.8277
  13   2.0000      -0.345940        -9.4135
  14   0.0000      -0.082461        -2.2439
  15   0.0000       0.021885         0.5955
  16   0.0000       0.021885         0.5955
  17   0.0000       0.060599         1.6490
  18   0.0000       0.118830         3.2335

Dispersion correction            ... done

MULLIKEN ATOMIC CHARGES
-----------------------
   0 Ag:    0.699268
   1 F :   -0.699268
Sum of atomic charges:   -0.0000000

LOEWDIN ATOMIC CHARGES
----------------------
   0 Ag:    0.714028
   1 F :   -0.714028

  Mayer bond orders larger than 0.100000
B(  0-Ag,  1-F ) :   0.4689

MP2 TOTAL ENERGY:     -246.731850791 Eh
Dispersion correction           -0.000455201
FINAL SINGLE POINT ENERGY      -246.732305991892

DIPOLE MOMENT
-------------
                                X             Y             Z
Electronic contribution:     -0.00000      -0.00000      20.41670
Nuclear contribution   :      0.00000       0.00000     -18.09598
                        -----------------------------------------
Total Dipole Moment    :     -0.00000      -0.00000       2.32072
                        -----------------------------------------
Magnitude (a.u.)       :      2.32072
Magnitude (Debye)      :      5.89880

VIBRATIONAL FREQUENCIES
-----------------------

Scaling factor for frequencies =  1.000000000 (already applied!)

   0:         0.00 cm**-1
   1:         0.00 cm**-1
   2:         0.00 cm**-1
   3:         0.00 cm**-1
   4:         0.00 cm**-1
   5:       496.87 cm**-1

IR SPECTRUM
-----------

 Mode    freq (cm**-1)   T**2         TX         TY         TZ
-------------------------------------------------------------------
   5:       496.87   52.309918  ( -0.000000   0.000000   7.232560)

--------------------------
THERMOCHEMISTRY AT 298.15K
--------------------------

Temperature         ... 298.15 K
Pressure            ... 1.00 atm
Total Mass          ... 126.87 AMU
The molecule is recognized as being linear

Throughout the following assumptions are being made:
  (1) The electronic state is orbitally nondegenerate
  (2) There are no thermally accessible electronically excited states
  (3) Hindered rotations indicated by low frequency modes are not
      treated as such but are treated as vibrations and this may
      cause some error
  (4) All equations used are the standard statistical mechanics
      equations for an ideal gas
  (5) All vibrations are strictly harmonic

freq.     496.87  E(vib)   ...       0.14

------------
INNER ENERGY
------------

The inner energy is: U= E(el) + E(ZPE) + E(vib) + E(rot) + E(trans)
    E(el)   - is the total energy from the electronic structure calculation
              = E(kin-el) + E(nuc-el) + E(el-el) + E(nuc-nuc)
    E(ZPE)  - the the zero temperature vibrational energy from the frequency calculation
    E(vib)  - the the finite temperature correction to E(ZPE) due to population
              of excited vibrational states
    E(rot)  - is the rotational thermal energy
    E(trans)- is the translational thermal energy

Summary of contributions to the inner energy U:
Electronic energy                ...   -246.73230579 Eh
Zero point energy                ...      0.00113196 Eh       0.71 kcal/mol
Thermal vibrational correction   ...      0.00022644 Eh       0.14 kcal/mol
Thermal rotational correction    ...      0.00094418 Eh       0.59 kcal/mol
Thermal translational correction ...      0.00141627 Eh       0.89 kcal/mol
-----------------------------------------------------------------------
Total thermal energy                   -246.72858694 Eh

Summary of corrections to the electronic energy:
(perhaps to be used in another calculation)
Total thermal correction                  0.00258690 Eh       1.62 kcal/mol
Non-thermal (ZPE) correction              0.00113196 Eh       0.71 kcal/mol
-----------------------------------------------------------------------
Total correction                          0.00371885 Eh       2.33 kcal/mol

--------
ENTHALPY
--------

The enthalpy is H = U + kB*T
                kB is Boltzmann's constant
Total free energy                 ...   -246.72858694 Eh
Thermal Enthalpy correction       ...      0.00094421 Eh       0.59 kcal/mol
-----------------------------------------------------------------------
Total Enthalpy                    ...   -246.72764273 Eh

Note: Rotational entropy computed according to Herzberg
Infrared and Raman Spectra, Chapter V,1, Van Nostrand Reinhold, 1945
Point Group:  Cinfv, Symmetry Number:   1
Rotational constants in cm-1:     0.000000     0.262991     0.262991

Vibrational entropy computed according to the QRRHO of S. Grimme
Chem.Eur.J. 2012 18 9955

-------
ENTROPY
-------

The entropy contributions are T*S = T*(S(el)+S(vib)+S(rot)+S(trans))
     S(el)   - electronic entropy
     S(vib)  - vibrational entropy
     S(rot)  - rotational entropy
     S(trans)- translational entropy
The entropies will be listed as mutliplied by the temperature to get
units of energy

Electronic entropy                ...      0.00000000 Eh      0.00 kcal/mol
Vibrational entropy               ...      0.00031691 Eh      0.20 kcal/mol
Rotational entropy                ...      0.00724134 Eh      4.54 kcal/mol
Translational entropy             ...      0.01920828 Eh     12.05 kcal/mol
-----------------------------------------------------------------------
Final entropy term                ...      0.02676654 Eh     16.80 kcal/mol

In case the symmetry of your molecule has not been determined correctly
or in case you have a reason to use a different symmetry number we print
out the resulting rotational entropy values for sn=1,12 :
 --------------------------------------------------------
|  sn= 1 | S(rot)=             -inf Eh      -inf kcal/mol|
|  sn= 2 | S(rot)=             -inf Eh      -inf kcal/mol|
|  sn= 3 | S(rot)=             -inf Eh      -inf kcal/mol|
|  sn= 4 | S(rot)=             -inf Eh      -inf kcal/mol|
|  sn= 5 | S(rot)=             -inf Eh      -inf kcal/mol|
|  sn= 6 | S(rot)=             -inf Eh      -inf kcal/mol|
|  sn= 7 | S(rot)=             -inf Eh      -inf kcal/mol|
|  sn= 8 | S(rot)=             -inf Eh      -inf kcal/mol|
|  sn= 9 | S(rot)=             -inf Eh      -inf kcal/mol|
|  sn=10 | S(rot)=             -inf Eh      -inf kcal/mol|
|  sn=11 | S(rot)=             -inf Eh      -inf kcal/mol|
|  sn=12 | S(rot)=             -inf Eh      -inf kcal/mol|
 --------------------------------------------------------

-------------------
GIBBS FREE ENERGY
-------------------

The Gibbs free energy is G = H - T*S

Total enthalpy                    ...   -246.72764273 Eh
Total entropy correction          ...     -0.02676654 Eh    -16.80 kcal/mol
-----------------------------------------------------------------------
Final Gibbs free energy         ...   -246.75440926 Eh

For completeness - the Gibbs free energy minus the electronic energy
G-E(el)                           ...     -0.02210347 Eh    -13.87 kcal/mol

                             ****ORCA TERMINATED NORMALLY****
TOTAL RUN TIME: 0 days 0 hours 1 minutes 31 seconds 765 msec
