                         Program Version 4.2.0 -  RELEASE  -
|  1> #
|  2> # Ag01N0_H ri-B2PLYP-D3BJ/Def2-TZVPPD
|  3> #
|  4> ! rijk ri-b2plyp d3bj def2-tzvppd def2/jk def2-tzvppd/c grid4 nofinalgrid opt xyzfile numfreq
|  5>
|  6> *xyz 0 1
|  7> Ag       0.000000    0.000000    0.033547
|  8> H        0.000000    0.000000   -1.576706
|  9> *
| 10>
| 11> %maxcore 5000
| 12>
| 13> %pal
| 14> nprocs = 24
| 15> end
| 16>
| 17>
| 18>                          ****END OF INPUT****
 Total Charge           Charge          ....    0
 Multiplicity           Mult            ....    1
 Number of Electrons    NEL             ....   20
Dispersion correction            ... done
MP2 TOTAL ENERGY:     -147.472348946 Eh
Dispersion correction           -0.000364791
FINAL SINGLE POINT ENERGY      -147.472713736328
Dispersion correction            ... done
MP2 TOTAL ENERGY:     -147.472349790 Eh
Dispersion correction           -0.000364782
FINAL SINGLE POINT ENERGY      -147.472714571460
Dispersion correction            ... done
MP2 TOTAL ENERGY:     -147.472351886 Eh
Dispersion correction           -0.000364752
FINAL SINGLE POINT ENERGY      -147.472716637674
                    ***********************HURRAY********************

CARTESIAN COORDINATES (ANGSTROEM)
---------------------------------
  Ag     0.000000    0.000000    0.031569
  H      0.000000    0.000000   -1.574728

 Multiplicity           Mult            ....    1
 Number of Electrons    NEL             ....   20
 Basis Dimension        Dim             ....   73

ORBITAL ENERGIES
----------------

  NO   OCC          E(Eh)            E(eV)
   0   2.0000      -3.996045      -108.7379
   1   2.0000      -2.533772       -68.9474
   2   2.0000      -2.527197       -68.7685
   3   2.0000      -2.527197       -68.7685
   4   2.0000      -0.455787       -12.4026
   5   2.0000      -0.417926       -11.3724
   6   2.0000      -0.417926       -11.3724
   7   2.0000      -0.411300       -11.1921
   8   2.0000      -0.411300       -11.1920
   9   2.0000      -0.280848        -7.6423
  10   0.0000      -0.043819        -1.1924
  11   0.0000       0.022431         0.6104
  12   0.0000       0.022431         0.6104
  13   0.0000       0.097817         2.6617
  14   0.0000       0.133103         3.6219

Dispersion correction            ... done

MULLIKEN ATOMIC CHARGES
-----------------------
   0 Ag:    0.011090
   1 H :   -0.011090
Sum of atomic charges:   -0.0000000

LOEWDIN ATOMIC CHARGES
----------------------
   0 Ag:    0.306702
   1 H :   -0.306702

  Mayer bond orders larger than 0.100000
B(  0-Ag,  1-H ) :   1.0348

MP2 TOTAL ENERGY:     -147.472351926 Eh
Dispersion correction           -0.000364752
FINAL SINGLE POINT ENERGY      -147.472716678208

DIPOLE MOMENT
-------------
                                X             Y             Z
Electronic contribution:     -0.00000      -0.00000       3.59224
Nuclear contribution   :      0.00000       0.00000      -2.47341
                        -----------------------------------------
Total Dipole Moment    :     -0.00000      -0.00000       1.11883
                        -----------------------------------------
Magnitude (a.u.)       :      1.11883
Magnitude (Debye)      :      2.84384

VIBRATIONAL FREQUENCIES
-----------------------

Scaling factor for frequencies =  1.000000000 (already applied!)

   0:         0.00 cm**-1
   1:         0.00 cm**-1
   2:         0.00 cm**-1
   3:         0.00 cm**-1
   4:         0.00 cm**-1
   5:      1808.03 cm**-1

IR SPECTRUM
-----------

 Mode    freq (cm**-1)   T**2         TX         TY         TZ
-------------------------------------------------------------------
   5:      1808.03   79.099128  (  0.000036  -0.000017   8.893769)

--------------------------
THERMOCHEMISTRY AT 298.15K
--------------------------

Temperature         ... 298.15 K
Pressure            ... 1.00 atm
Total Mass          ... 108.88 AMU
The molecule is recognized as being linear

Throughout the following assumptions are being made:
  (1) The electronic state is orbitally nondegenerate
  (2) There are no thermally accessible electronically excited states
  (3) Hindered rotations indicated by low frequency modes are not
      treated as such but are treated as vibrations and this may
      cause some error
  (4) All equations used are the standard statistical mechanics
      equations for an ideal gas
  (5) All vibrations are strictly harmonic

freq.    1808.03  E(vib)   ...       0.00

------------
INNER ENERGY
------------

The inner energy is: U= E(el) + E(ZPE) + E(vib) + E(rot) + E(trans)
    E(el)   - is the total energy from the electronic structure calculation
              = E(kin-el) + E(nuc-el) + E(el-el) + E(nuc-nuc)
    E(ZPE)  - the the zero temperature vibrational energy from the frequency calculation
    E(vib)  - the the finite temperature correction to E(ZPE) due to population
              of excited vibrational states
    E(rot)  - is the rotational thermal energy
    E(trans)- is the translational thermal energy

Summary of contributions to the inner energy U:
Electronic energy                ...   -147.47271679 Eh
Zero point energy                ...      0.00411901 Eh       2.58 kcal/mol
Thermal vibrational correction   ...      0.00000134 Eh       0.00 kcal/mol
Thermal rotational correction    ...      0.00094418 Eh       0.59 kcal/mol
Thermal translational correction ...      0.00141627 Eh       0.89 kcal/mol
-----------------------------------------------------------------------
Total thermal energy                   -147.46623599 Eh

Summary of corrections to the electronic energy:
(perhaps to be used in another calculation)
Total thermal correction                  0.00236179 Eh       1.48 kcal/mol
Non-thermal (ZPE) correction              0.00411901 Eh       2.58 kcal/mol
-----------------------------------------------------------------------
Total correction                          0.00648080 Eh       4.07 kcal/mol

--------
ENTHALPY
--------

The enthalpy is H = U + kB*T
                kB is Boltzmann's constant
Total free energy                 ...   -147.46623599 Eh
Thermal Enthalpy correction       ...      0.00094421 Eh       0.59 kcal/mol
-----------------------------------------------------------------------
Total Enthalpy                    ...   -147.46529179 Eh

Note: Rotational entropy computed according to Herzberg
Infrared and Raman Spectra, Chapter V,1, Van Nostrand Reinhold, 1945
Point Group:  Cinfv, Symmetry Number:   1
Rotational constants in cm-1:     0.000000     6.542207     6.542207

Vibrational entropy computed according to the QRRHO of S. Grimme
Chem.Eur.J. 2012 18 9955

-------
ENTROPY
-------

The entropy contributions are T*S = T*(S(el)+S(vib)+S(rot)+S(trans))
     S(el)   - electronic entropy
     S(vib)  - vibrational entropy
     S(rot)  - rotational entropy
     S(trans)- translational entropy
The entropies will be listed as mutliplied by the temperature to get
units of energy

Electronic entropy                ...      0.00000000 Eh      0.00 kcal/mol
Vibrational entropy               ...      0.00000149 Eh      0.00 kcal/mol
Rotational entropy                ...      0.00420683 Eh      2.64 kcal/mol
Translational entropy             ...      0.01899171 Eh     11.92 kcal/mol
-----------------------------------------------------------------------
Final entropy term                ...      0.02320003 Eh     14.56 kcal/mol

In case the symmetry of your molecule has not been determined correctly
or in case you have a reason to use a different symmetry number we print
out the resulting rotational entropy values for sn=1,12 :
 --------------------------------------------------------
|  sn= 1 | S(rot)=             -inf Eh      -inf kcal/mol|
|  sn= 2 | S(rot)=             -inf Eh      -inf kcal/mol|
|  sn= 3 | S(rot)=             -inf Eh      -inf kcal/mol|
|  sn= 4 | S(rot)=             -inf Eh      -inf kcal/mol|
|  sn= 5 | S(rot)=             -inf Eh      -inf kcal/mol|
|  sn= 6 | S(rot)=             -inf Eh      -inf kcal/mol|
|  sn= 7 | S(rot)=             -inf Eh      -inf kcal/mol|
|  sn= 8 | S(rot)=             -inf Eh      -inf kcal/mol|
|  sn= 9 | S(rot)=             -inf Eh      -inf kcal/mol|
|  sn=10 | S(rot)=             -inf Eh      -inf kcal/mol|
|  sn=11 | S(rot)=             -inf Eh      -inf kcal/mol|
|  sn=12 | S(rot)=             -inf Eh      -inf kcal/mol|
 --------------------------------------------------------

-------------------
GIBBS FREE ENERGY
-------------------

The Gibbs free energy is G = H - T*S

Total enthalpy                    ...   -147.46529179 Eh
Total entropy correction          ...     -0.02320003 Eh    -14.56 kcal/mol
-----------------------------------------------------------------------
Final Gibbs free energy         ...   -147.48849182 Eh

For completeness - the Gibbs free energy minus the electronic energy
G-E(el)                           ...     -0.01577503 Eh     -9.90 kcal/mol

                             ****ORCA TERMINATED NORMALLY****
TOTAL RUN TIME: 0 days 0 hours 0 minutes 47 seconds 239 msec
