                         Program Version 4.2.0 -  RELEASE  -
|  1> #
|  2> # Ag03N0_D3H ri-B2PLYP-D3BJ/Def2-TZVPPD
|  3> #
|  4> ! rijk ri-b2plyp d3bj def2-tzvppd def2/jk def2-tzvppd/c grid4 nofinalgrid opt xyzfile numfreq
|  5>
|  6> *xyz 0 2
|  7> Ag       0.000000    1.533951   -0.000000
|  8> Ag       1.328441   -0.766976    0.000000
|  9> Ag      -1.328441   -0.766976   -0.000000
| 10> *
| 11>
| 12> %maxcore 5000
| 13>
| 14> %pal
| 15> nprocs = 24
| 16> end
| 17>
| 18>
| 19>                          ****END OF INPUT****
 Total Charge           Charge          ....    0
 Multiplicity           Mult            ....    2
 Number of Electrons    NEL             ....   57
Dispersion correction            ... done
MP2 TOTAL ENERGY:     -440.742427272 Eh
Dispersion correction           -0.005944178
FINAL SINGLE POINT ENERGY      -440.748371450042
Dispersion correction            ... done
MP2 TOTAL ENERGY:     -440.742728580 Eh
Dispersion correction           -0.005942425
FINAL SINGLE POINT ENERGY      -440.748671004730
FINAL SINGLE POINT ENERGY      -440.750847835741
FINAL SINGLE POINT ENERGY      -440.750948043619
FINAL SINGLE POINT ENERGY      -440.750958987465
FINAL SINGLE POINT ENERGY      -440.750976488452
FINAL SINGLE POINT ENERGY      -440.750992338756
FINAL SINGLE POINT ENERGY      -440.750998686490
Dispersion correction            ... done
MP2 TOTAL ENERGY:     -440.745103319 Eh
Dispersion correction           -0.005896103
FINAL SINGLE POINT ENERGY      -440.750999421431
                    ***********************HURRAY********************

CARTESIAN COORDINATES (ANGSTROEM)
---------------------------------
  Ag     0.000001    1.653942    0.000000
  Ag     1.291813   -0.826971    0.000000
  Ag    -1.291814   -0.826972    0.000000

 Multiplicity           Mult            ....    2
 Number of Electrons    NEL             ....   57
 Basis Dimension        Dim             ....  168

ORBITAL ENERGIES
----------------
                 SPIN UP ORBITALS
  NO   OCC          E(Eh)            E(eV)
   0   1.0000      -3.988956      -108.5450
   1   1.0000      -3.988392      -108.5297
   2   1.0000      -3.964539      -107.8806
   3   1.0000      -2.528175       -68.7951
   4   1.0000      -2.522523       -68.6414
   5   1.0000      -2.522063       -68.6288
   6   1.0000      -2.521913       -68.6248
   7   1.0000      -2.521440       -68.6119
   8   1.0000      -2.521358       -68.6097
   9   1.0000      -2.498061       -67.9757
  10   1.0000      -2.497852       -67.9700
  11   1.0000      -2.496361       -67.9294
  12   1.0000      -0.450372       -12.2552
  13   1.0000      -0.442708       -12.0467
  14   1.0000      -0.432796       -11.7770
  15   1.0000      -0.421328       -11.4649
  16   1.0000      -0.417194       -11.3524
  17   1.0000      -0.416888       -11.3441
  18   1.0000      -0.408147       -11.1062
  19   1.0000      -0.395676       -10.7669
  20   1.0000      -0.392459       -10.6793
  21   1.0000      -0.388738       -10.5781
  22   1.0000      -0.383261       -10.4291
  23   1.0000      -0.381988       -10.3944
  24   1.0000      -0.379331       -10.3221
  25   1.0000      -0.377968       -10.2850
  26   1.0000      -0.365898        -9.9566
  27   1.0000      -0.270345        -7.3565
  28   1.0000      -0.157953        -4.2981
  29   0.0000      -0.066989        -1.8229
  30   0.0000      -0.009793        -0.2665
  31   0.0000       0.007116         0.1936
  32   0.0000       0.024927         0.6783
  33   0.0000       0.027043         0.7359

                 SPIN DOWN ORBITALS
  NO   OCC          E(Eh)            E(eV)
   0   1.0000      -3.988473      -108.5319
   1   1.0000      -3.987911      -108.5166
   2   1.0000      -3.962795      -107.8331
   3   1.0000      -2.527814       -68.7853
   4   1.0000      -2.522094       -68.6297
   5   1.0000      -2.522077       -68.6292
   6   1.0000      -2.521890       -68.6241
   7   1.0000      -2.521353       -68.6095
   8   1.0000      -2.520699       -68.5917
   9   1.0000      -2.498090       -67.9765
  10   1.0000      -2.497212       -67.9526
  11   1.0000      -2.495974       -67.9189
  12   1.0000      -0.450092       -12.2476
  13   1.0000      -0.440518       -11.9871
  14   1.0000      -0.432248       -11.7621
  15   1.0000      -0.418884       -11.3984
  16   1.0000      -0.415730       -11.3126
  17   1.0000      -0.415270       -11.3001
  18   1.0000      -0.407182       -11.0800
  19   1.0000      -0.394922       -10.7464
  20   1.0000      -0.392369       -10.6769
  21   1.0000      -0.388319       -10.5667
  22   1.0000      -0.380396       -10.3511
  23   1.0000      -0.379369       -10.3231
  24   1.0000      -0.376201       -10.2369
  25   1.0000      -0.374454       -10.1894
  26   1.0000      -0.362226        -9.8567
  27   1.0000      -0.253603        -6.9009
  28   0.0000      -0.061102        -1.6627
  29   0.0000      -0.045355        -1.2342
  30   0.0000      -0.005037        -0.1371
  31   0.0000       0.018334         0.4989
  32   0.0000       0.038509         1.0479

Dispersion correction            ... done

MULLIKEN ATOMIC CHARGES AND SPIN DENSITIES
------------------------------------------
   0 Ag:   -0.123882    0.629528
   1 Ag:    0.061942    0.185234
   2 Ag:    0.061940    0.185238
Sum of atomic charges       :   -0.0000000

LOEWDIN ATOMIC CHARGES AND SPIN DENSITIES
-----------------------------------------
   0 Ag:   -0.078230    0.509840
   1 Ag:    0.039116    0.245079
   2 Ag:    0.039115    0.245081

  Mayer bond orders larger than 0.100000
B(  0-Ag,  1-Ag) :   0.4317 B(  0-Ag,  2-Ag) :   0.4317 B(  1-Ag,  2-Ag) :   0.7500

MP2 TOTAL ENERGY:     -440.745102948 Eh
Dispersion correction           -0.005896447
FINAL SINGLE POINT ENERGY      -440.750999394135

DIPOLE MOMENT
-------------
                                X             Y             Z
Electronic contribution:      0.00000      -0.49725       0.00000
Nuclear contribution   :      0.00000       0.00000       0.00000
                        -----------------------------------------
Total Dipole Moment    :      0.00000      -0.49725       0.00000
                        -----------------------------------------
Magnitude (a.u.)       :      0.49725
Magnitude (Debye)      :      1.26392

VIBRATIONAL FREQUENCIES
-----------------------

Scaling factor for frequencies =  1.000000000 (already applied!)

   0:         0.00 cm**-1
   1:         0.00 cm**-1
   2:         0.00 cm**-1
   3:         0.00 cm**-1
   4:         0.00 cm**-1
   5:         0.00 cm**-1
   6:       -87.14 cm**-1 ***imaginary mode***
   7:       111.55 cm**-1
   8:       181.45 cm**-1

IR SPECTRUM
-----------

 Mode    freq (cm**-1)   T**2         TX         TY         TZ
-------------------------------------------------------------------
   7:       111.55    0.080806  (  0.000235  -0.284263   0.000013)
   8:       181.45    0.293800  (  0.000106  -0.542033   0.000005)

--------------------------
THERMOCHEMISTRY AT 298.15K
--------------------------

Temperature         ... 298.15 K
Pressure            ... 1.00 atm
Total Mass          ... 323.61 AMU

Throughout the following assumptions are being made:
  (1) The electronic state is orbitally nondegenerate
      but the spin degeneracy is treated
  (2) There are no thermally accessible electronically excited states
  (3) Hindered rotations indicated by low frequency modes are not
      treated as such but are treated as vibrations and this may
      cause some error
  (4) All equations used are the standard statistical mechanics
      equations for an ideal gas
  (5) All vibrations are strictly harmonic

freq.     111.55  E(vib)   ...       0.45
freq.     181.45  E(vib)   ...       0.37

------------
INNER ENERGY
------------

The inner energy is: U= E(el) + E(ZPE) + E(vib) + E(rot) + E(trans)
    E(el)   - is the total energy from the electronic structure calculation
              = E(kin-el) + E(nuc-el) + E(el-el) + E(nuc-nuc)
    E(ZPE)  - the the zero temperature vibrational energy from the frequency calculation
    E(vib)  - the the finite temperature correction to E(ZPE) due to population
              of excited vibrational states
    E(rot)  - is the rotational thermal energy
    E(trans)- is the translational thermal energy

Summary of contributions to the inner energy U:
Electronic energy                ...   -440.75099923 Eh
Zero point energy                ...      0.00066750 Eh       0.42 kcal/mol
Thermal vibrational correction   ...      0.00130318 Eh       0.82 kcal/mol
Thermal rotational correction    ...      0.00141627 Eh       0.89 kcal/mol
Thermal translational correction ...      0.00141627 Eh       0.89 kcal/mol
-----------------------------------------------------------------------
Total thermal energy                   -440.74619601 Eh

Summary of corrections to the electronic energy:
(perhaps to be used in another calculation)
Total thermal correction                  0.00413572 Eh       2.60 kcal/mol
Non-thermal (ZPE) correction              0.00066750 Eh       0.42 kcal/mol
-----------------------------------------------------------------------
Total correction                          0.00480322 Eh       3.01 kcal/mol

--------
ENTHALPY
--------

The enthalpy is H = U + kB*T
                kB is Boltzmann's constant
Total free energy                 ...   -440.74619601 Eh
Thermal Enthalpy correction       ...      0.00094421 Eh       0.59 kcal/mol
-----------------------------------------------------------------------
Total Enthalpy                    ...   -440.74525180 Eh

Note: Rotational entropy computed according to Herzberg
Infrared and Raman Spectra, Chapter V,1, Van Nostrand Reinhold, 1945
Point Group:  Cs, Symmetry Number:   1
Rotational constants in cm-1:     0.046824     0.038086     0.021003

Vibrational entropy computed according to the QRRHO of S. Grimme
Chem.Eur.J. 2012 18 9955

-------
ENTROPY
-------

The entropy contributions are T*S = T*(S(el)+S(vib)+S(rot)+S(trans))
     S(el)   - electronic entropy
     S(vib)  - vibrational entropy
     S(rot)  - rotational entropy
     S(trans)- translational entropy
The entropies will be listed as mutliplied by the temperature to get
units of energy

Electronic entropy                ...      0.00065446 Eh      0.41 kcal/mol
Vibrational entropy               ...      0.00254515 Eh      1.60 kcal/mol
Rotational entropy                ...      0.01432254 Eh      8.99 kcal/mol
Translational entropy             ...      0.02053447 Eh     12.89 kcal/mol
-----------------------------------------------------------------------
Final entropy term                ...      0.03805661 Eh     23.88 kcal/mol

In case the symmetry of your molecule has not been determined correctly
or in case you have a reason to use a different symmetry number we print
out the resulting rotational entropy values for sn=1,12 :
 --------------------------------------------------------
|  sn= 1 | S(rot)=       0.01432254 Eh      8.99 kcal/mol|
|  sn= 2 | S(rot)=       0.01366808 Eh      8.58 kcal/mol|
|  sn= 3 | S(rot)=       0.01328525 Eh      8.34 kcal/mol|
|  sn= 4 | S(rot)=       0.01301362 Eh      8.17 kcal/mol|
|  sn= 5 | S(rot)=       0.01280294 Eh      8.03 kcal/mol|
|  sn= 6 | S(rot)=       0.01263079 Eh      7.93 kcal/mol|
|  sn= 7 | S(rot)=       0.01248525 Eh      7.83 kcal/mol|
|  sn= 8 | S(rot)=       0.01235917 Eh      7.76 kcal/mol|
|  sn= 9 | S(rot)=       0.01224796 Eh      7.69 kcal/mol|
|  sn=10 | S(rot)=       0.01214848 Eh      7.62 kcal/mol|
|  sn=11 | S(rot)=       0.01205849 Eh      7.57 kcal/mol|
|  sn=12 | S(rot)=       0.01197634 Eh      7.52 kcal/mol|
 --------------------------------------------------------

-------------------
GIBBS FREE ENERGY
-------------------

The Gibbs free energy is G = H - T*S

Total enthalpy                    ...   -440.74525180 Eh
Total entropy correction          ...     -0.03805661 Eh    -23.88 kcal/mol
-----------------------------------------------------------------------
Final Gibbs free energy         ...   -440.78330842 Eh

For completeness - the Gibbs free energy minus the electronic energy
G-E(el)                           ...     -0.03230919 Eh    -20.27 kcal/mol

                             ****ORCA TERMINATED NORMALLY****
TOTAL RUN TIME: 0 days 0 hours 8 minutes 19 seconds 354 msec
