                         Program Version 4.2.0 -  RELEASE  -
|  1> #
|  2> # Ag03C1_LIN ri-B2PLYP-D3BJ/Def2-TZVPPD
|  3> #
|  4> ! rijk ri-b2plyp d3bj def2-tzvppd def2/jk def2-tzvppd/c grid4 nofinalgrid opt xyzfile numfreq
|  5>
|  6> *xyz 1 1
|  7> Ag       0.000000    0.000000    0.000000
|  8> Ag       0.000000    0.000000    2.629319
|  9> Ag       0.000000    0.000000   -2.629319
| 10> *
| 11>
| 12> %maxcore 5000
| 13>
| 14> %pal
| 15> nprocs = 24
| 16> end
| 17>
| 18>
| 19>                          ****END OF INPUT****
 Total Charge           Charge          ....    1
 Multiplicity           Mult            ....    1
 Number of Electrons    NEL             ....   56
Dispersion correction            ... done
MP2 TOTAL ENERGY:     -440.490990028 Eh
Dispersion correction           -0.004343756
FINAL SINGLE POINT ENERGY      -440.495333783760
Dispersion correction            ... done
MP2 TOTAL ENERGY:     -440.491020545 Eh
Dispersion correction           -0.004341240
FINAL SINGLE POINT ENERGY      -440.495361785285
FINAL SINGLE POINT ENERGY      -440.495552672577
Dispersion correction            ... done
MP2 TOTAL ENERGY:     -440.491248333 Eh
Dispersion correction           -0.004306059
FINAL SINGLE POINT ENERGY      -440.495554391636
                    ***********************HURRAY********************

CARTESIAN COORDINATES (ANGSTROEM)
---------------------------------
  Ag    -0.000000   -0.000000   -0.000000
  Ag     0.000000    0.000000    2.667628
  Ag     0.000000    0.000000   -2.667628

 Multiplicity           Mult            ....    1
 Number of Electrons    NEL             ....   56
 Basis Dimension        Dim             ....  168

ORBITAL ENERGIES
----------------

  NO   OCC          E(Eh)            E(eV)
   0   2.0000      -4.178623      -113.7061
   1   2.0000      -4.178623      -113.7061
   2   2.0000      -4.135031      -112.5199
   3   2.0000      -2.716079       -73.9083
   4   2.0000      -2.715833       -73.9016
   5   2.0000      -2.713924       -73.8496
   6   2.0000      -2.713924       -73.8496
   7   2.0000      -2.713910       -73.8493
   8   2.0000      -2.713910       -73.8493
   9   2.0000      -2.672952       -72.7347
  10   2.0000      -2.666662       -72.5636
  11   2.0000      -2.666662       -72.5636
  12   2.0000      -0.631577       -17.1861
  13   2.0000      -0.611859       -16.6495
  14   2.0000      -0.611859       -16.6495
  15   2.0000      -0.605639       -16.4803
  16   2.0000      -0.603542       -16.4232
  17   2.0000      -0.603542       -16.4232
  18   2.0000      -0.600703       -16.3460
  19   2.0000      -0.600702       -16.3459
  20   2.0000      -0.600410       -16.3380
  21   2.0000      -0.600410       -16.3380
  22   2.0000      -0.551299       -15.0016
  23   2.0000      -0.551299       -15.0016
  24   2.0000      -0.549829       -14.9616
  25   2.0000      -0.549829       -14.9616
  26   2.0000      -0.542407       -14.7597
  27   2.0000      -0.392804       -10.6887
  28   0.0000      -0.274525        -7.4702
  29   0.0000      -0.182266        -4.9597
  30   0.0000      -0.145352        -3.9552
  31   0.0000      -0.145352        -3.9552
  32   0.0000      -0.114326        -3.1110

Dispersion correction            ... done

MULLIKEN ATOMIC CHARGES
-----------------------
   0 Ag:   -0.032407
   1 Ag:    0.516203
   2 Ag:    0.516204
Sum of atomic charges:    1.0000000

LOEWDIN ATOMIC CHARGES
----------------------
   0 Ag:    0.131262
   1 Ag:    0.434369
   2 Ag:    0.434369

  Mayer bond orders larger than 0.100000
B(  0-Ag,  1-Ag) :   0.5274 B(  0-Ag,  2-Ag) :   0.5274 B(  1-Ag,  2-Ag) :   0.2179

MP2 TOTAL ENERGY:     -440.491248507 Eh
Dispersion correction           -0.004305834
FINAL SINGLE POINT ENERGY      -440.495554340841

DIPOLE MOMENT
-------------
                                X             Y             Z
Electronic contribution:      0.00000       0.00000       0.00000
Nuclear contribution   :      0.00000       0.00000       0.00000
                        -----------------------------------------
Total Dipole Moment    :      0.00000       0.00000       0.00000
                        -----------------------------------------
Magnitude (a.u.)       :      0.00000
Magnitude (Debye)      :      0.00000

VIBRATIONAL FREQUENCIES
-----------------------

Scaling factor for frequencies =  1.000000000 (already applied!)

   0:         0.00 cm**-1
   1:         0.00 cm**-1
   2:         0.00 cm**-1
   3:         0.00 cm**-1
   4:         0.00 cm**-1
   5:         0.00 cm**-1
   6:       -37.65 cm**-1 ***imaginary mode***
   7:        98.63 cm**-1
   8:       166.50 cm**-1

IR SPECTRUM
-----------

 Mode    freq (cm**-1)   T**2         TX         TY         TZ
-------------------------------------------------------------------
   7:        98.63    0.000000  (  0.000003   0.000006   0.000028)
   8:       166.50   21.356460  (  0.000007   0.000001   4.621305)

--------------------------
THERMOCHEMISTRY AT 298.15K
--------------------------

Temperature         ... 298.15 K
Pressure            ... 1.00 atm
Total Mass          ... 323.61 AMU
The molecule is recognized as being linear

Throughout the following assumptions are being made:
  (1) The electronic state is orbitally nondegenerate
  (2) There are no thermally accessible electronically excited states
  (3) Hindered rotations indicated by low frequency modes are not
      treated as such but are treated as vibrations and this may
      cause some error
  (4) All equations used are the standard statistical mechanics
      equations for an ideal gas
  (5) All vibrations are strictly harmonic

freq.      98.63  E(vib)   ...       0.46
freq.     166.50  E(vib)   ...       0.39

------------
INNER ENERGY
------------

The inner energy is: U= E(el) + E(ZPE) + E(vib) + E(rot) + E(trans)
    E(el)   - is the total energy from the electronic structure calculation
              = E(kin-el) + E(nuc-el) + E(el-el) + E(nuc-nuc)
    E(ZPE)  - the the zero temperature vibrational energy from the frequency calculation
    E(vib)  - the the finite temperature correction to E(ZPE) due to population
              of excited vibrational states
    E(rot)  - is the rotational thermal energy
    E(trans)- is the translational thermal energy

Summary of contributions to the inner energy U:
Electronic energy                ...   -440.49555434 Eh
Zero point energy                ...      0.00060402 Eh       0.38 kcal/mol
Thermal vibrational correction   ...      0.00135241 Eh       0.85 kcal/mol
Thermal rotational correction    ...      0.00094418 Eh       0.59 kcal/mol
Thermal translational correction ...      0.00141627 Eh       0.89 kcal/mol
-----------------------------------------------------------------------
Total thermal energy                   -440.49123746 Eh

Summary of corrections to the electronic energy:
(perhaps to be used in another calculation)
Total thermal correction                  0.00371287 Eh       2.33 kcal/mol
Non-thermal (ZPE) correction              0.00060402 Eh       0.38 kcal/mol
-----------------------------------------------------------------------
Total correction                          0.00431688 Eh       2.71 kcal/mol

--------
ENTHALPY
--------

The enthalpy is H = U + kB*T
                kB is Boltzmann's constant
Total free energy                 ...   -440.49123746 Eh
Thermal Enthalpy correction       ...      0.00094421 Eh       0.59 kcal/mol
-----------------------------------------------------------------------
Total Enthalpy                    ...   -440.49029325 Eh

Note: Rotational entropy computed according to Herzberg
Infrared and Raman Spectra, Chapter V,1, Van Nostrand Reinhold, 1945
Point Group:  Dinfh, Symmetry Number:   2
Rotational constants in cm-1:     0.000000     0.010980     0.010980

Vibrational entropy computed according to the QRRHO of S. Grimme
Chem.Eur.J. 2012 18 9955

-------
ENTROPY
-------

The entropy contributions are T*S = T*(S(el)+S(vib)+S(rot)+S(trans))
     S(el)   - electronic entropy
     S(vib)  - vibrational entropy
     S(rot)  - rotational entropy
     S(trans)- translational entropy
The entropies will be listed as mutliplied by the temperature to get
units of energy

Electronic entropy                ...      0.00000000 Eh      0.00 kcal/mol
Vibrational entropy               ...      0.00267345 Eh      1.68 kcal/mol
Rotational entropy                ...      0.00958562 Eh      6.02 kcal/mol
Translational entropy             ...      0.02053447 Eh     12.89 kcal/mol
-----------------------------------------------------------------------
Final entropy term                ...      0.03279354 Eh     20.58 kcal/mol

In case the symmetry of your molecule has not been determined correctly
or in case you have a reason to use a different symmetry number we print
out the resulting rotational entropy values for sn=1,12 :
 --------------------------------------------------------
|  sn= 1 | S(rot)=      -0.00078175 Eh     -0.49 kcal/mol|
|  sn= 2 | S(rot)=      -0.00143621 Eh     -0.90 kcal/mol|
|  sn= 3 | S(rot)=      -0.00181904 Eh     -1.14 kcal/mol|
|  sn= 4 | S(rot)=      -0.00209067 Eh     -1.31 kcal/mol|
|  sn= 5 | S(rot)=      -0.00230135 Eh     -1.44 kcal/mol|
|  sn= 6 | S(rot)=      -0.00247350 Eh     -1.55 kcal/mol|
|  sn= 7 | S(rot)=      -0.00261904 Eh     -1.64 kcal/mol|
|  sn= 8 | S(rot)=      -0.00274512 Eh     -1.72 kcal/mol|
|  sn= 9 | S(rot)=      -0.00285633 Eh     -1.79 kcal/mol|
|  sn=10 | S(rot)=      -0.00295581 Eh     -1.85 kcal/mol|
|  sn=11 | S(rot)=      -0.00304580 Eh     -1.91 kcal/mol|
|  sn=12 | S(rot)=      -0.00312795 Eh     -1.96 kcal/mol|
 --------------------------------------------------------

-------------------
GIBBS FREE ENERGY
-------------------

The Gibbs free energy is G = H - T*S

Total enthalpy                    ...   -440.49029325 Eh
Total entropy correction          ...     -0.03279354 Eh    -20.58 kcal/mol
-----------------------------------------------------------------------
Final Gibbs free energy         ...   -440.52308679 Eh

For completeness - the Gibbs free energy minus the electronic energy
G-E(el)                           ...     -0.02753245 Eh    -17.28 kcal/mol

                             ****ORCA TERMINATED NORMALLY****
TOTAL RUN TIME: 0 days 0 hours 4 minutes 12 seconds 715 msec
