                         Program Version 4.2.0 -  RELEASE  -
|  1> #
|  2> # Ag03C1_D3H ri-B2PLYP-D3BJ/Def2-TZVPPD
|  3> #
|  4> ! rijk ri-b2plyp d3bj def2-tzvppd def2/jk def2-tzvppd/c grid4 nofinalgrid opt xyzfile numfreq
|  5>
|  6> *xyz 1 1
|  7> Ag       0.000000    1.529877    0.000000
|  8> Ag       1.324912   -0.764938    0.000000
|  9> Ag      -1.324912   -0.764938    0.000000
| 10> *
| 11>
| 12> %maxcore 5000
| 13>
| 14> %pal
| 15> nprocs = 24
| 16> end
| 17>
| 18>
| 19>                          ****END OF INPUT****
 Total Charge           Charge          ....    1
 Multiplicity           Mult            ....    1
 Number of Electrons    NEL             ....   56
Dispersion correction            ... done
MP2 TOTAL ENERGY:     -440.538869448 Eh
Dispersion correction           -0.005948097
FINAL SINGLE POINT ENERGY      -440.544817544337
Dispersion correction            ... done
MP2 TOTAL ENERGY:     -440.538927410 Eh
Dispersion correction           -0.005946468
FINAL SINGLE POINT ENERGY      -440.544873878411
FINAL SINGLE POINT ENERGY      -440.545216510447
Dispersion correction            ... done
MP2 TOTAL ENERGY:     -440.539296052 Eh
Dispersion correction           -0.005924508
FINAL SINGLE POINT ENERGY      -440.545220559828
                    ***********************HURRAY********************

CARTESIAN COORDINATES (ANGSTROEM)
---------------------------------
  Ag    -0.000000    1.554183    0.000000
  Ag     1.345170   -0.777091    0.000000
  Ag    -1.345170   -0.777091    0.000000

 Multiplicity           Mult            ....    1
 Number of Electrons    NEL             ....   56
 Basis Dimension        Dim             ....  168

ORBITAL ENERGIES
----------------

  NO   OCC          E(Eh)            E(eV)
   0   2.0000      -4.171651      -113.5164
   1   2.0000      -4.171160      -113.5030
   2   2.0000      -4.171155      -113.5029
   3   2.0000      -2.710699       -73.7619
   4   2.0000      -2.708107       -73.6913
   5   2.0000      -2.708100       -73.6912
   6   2.0000      -2.705120       -73.6101
   7   2.0000      -2.704865       -73.6031
   8   2.0000      -2.704749       -73.6000
   9   2.0000      -2.704747       -73.5999
  10   2.0000      -2.704347       -73.5890
  11   2.0000      -2.704339       -73.5888
  12   2.0000      -0.638230       -17.3671
  13   2.0000      -0.622831       -16.9481
  14   2.0000      -0.622762       -16.9462
  15   2.0000      -0.617872       -16.8132
  16   2.0000      -0.604711       -16.4550
  17   2.0000      -0.601814       -16.3762
  18   2.0000      -0.601790       -16.3755
  19   2.0000      -0.583446       -15.8764
  20   2.0000      -0.583403       -15.8752
  21   2.0000      -0.580526       -15.7969
  22   2.0000      -0.576743       -15.6940
  23   2.0000      -0.576729       -15.6936
  24   2.0000      -0.574577       -15.6350
  25   2.0000      -0.574532       -15.6338
  26   2.0000      -0.555856       -15.1256
  27   2.0000      -0.438697       -11.9376
  28   0.0000      -0.222310        -6.0494
  29   0.0000      -0.222259        -6.0480
  30   0.0000      -0.161145        -4.3850
  31   0.0000      -0.129514        -3.5242
  32   0.0000      -0.114699        -3.1211

Dispersion correction            ... done

MULLIKEN ATOMIC CHARGES
-----------------------
   0 Ag:    0.333476
   1 Ag:    0.333262
   2 Ag:    0.333262
Sum of atomic charges:    1.0000000

LOEWDIN ATOMIC CHARGES
----------------------
   0 Ag:    0.333461
   1 Ag:    0.333270
   2 Ag:    0.333270

  Mayer bond orders larger than 0.100000
B(  0-Ag,  1-Ag) :   0.5050 B(  0-Ag,  2-Ag) :   0.5050 B(  1-Ag,  2-Ag) :   0.5053

MP2 TOTAL ENERGY:     -440.539296093 Eh
Dispersion correction           -0.005924333
FINAL SINGLE POINT ENERGY      -440.545220426136

DIPOLE MOMENT
-------------
                                X             Y             Z
Electronic contribution:      0.00000       0.00063       0.00000
Nuclear contribution   :      0.00000      -0.00000       0.00000
                        -----------------------------------------
Total Dipole Moment    :      0.00000       0.00063       0.00000
                        -----------------------------------------
Magnitude (a.u.)       :      0.00063
Magnitude (Debye)      :      0.00160

VIBRATIONAL FREQUENCIES
-----------------------

Scaling factor for frequencies =  1.000000000 (already applied!)

   0:         0.00 cm**-1
   1:         0.00 cm**-1
   2:         0.00 cm**-1
   3:         0.00 cm**-1
   4:         0.00 cm**-1
   5:         0.00 cm**-1
   6:       116.98 cm**-1
   7:       118.03 cm**-1
   8:       173.06 cm**-1

IR SPECTRUM
-----------

 Mode    freq (cm**-1)   T**2         TX         TY         TZ
-------------------------------------------------------------------
   6:       116.98    1.482595  ( -1.217618  -0.000342  -0.000001)
   7:       118.03    1.666601  ( -0.000318   1.290969  -0.000011)
   8:       173.06    0.000014  (  0.000038   0.003703  -0.000002)

--------------------------
THERMOCHEMISTRY AT 298.15K
--------------------------

Temperature         ... 298.15 K
Pressure            ... 1.00 atm
Total Mass          ... 323.61 AMU

Throughout the following assumptions are being made:
  (1) The electronic state is orbitally nondegenerate
  (2) There are no thermally accessible electronically excited states
  (3) Hindered rotations indicated by low frequency modes are not
      treated as such but are treated as vibrations and this may
      cause some error
  (4) All equations used are the standard statistical mechanics
      equations for an ideal gas
  (5) All vibrations are strictly harmonic

freq.     116.98  E(vib)   ...       0.44
freq.     118.03  E(vib)   ...       0.44
freq.     173.06  E(vib)   ...       0.38

------------
INNER ENERGY
------------

The inner energy is: U= E(el) + E(ZPE) + E(vib) + E(rot) + E(trans)
    E(el)   - is the total energy from the electronic structure calculation
              = E(kin-el) + E(nuc-el) + E(el-el) + E(nuc-nuc)
    E(ZPE)  - the the zero temperature vibrational energy from the frequency calculation
    E(vib)  - the the finite temperature correction to E(ZPE) due to population
              of excited vibrational states
    E(rot)  - is the rotational thermal energy
    E(trans)- is the translational thermal energy

Summary of contributions to the inner energy U:
Electronic energy                ...   -440.54522038 Eh
Zero point energy                ...      0.00092966 Eh       0.58 kcal/mol
Thermal vibrational correction   ...      0.00200755 Eh       1.26 kcal/mol
Thermal rotational correction    ...      0.00141627 Eh       0.89 kcal/mol
Thermal translational correction ...      0.00141627 Eh       0.89 kcal/mol
-----------------------------------------------------------------------
Total thermal energy                   -440.53945063 Eh

Summary of corrections to the electronic energy:
(perhaps to be used in another calculation)
Total thermal correction                  0.00484009 Eh       3.04 kcal/mol
Non-thermal (ZPE) correction              0.00092966 Eh       0.58 kcal/mol
-----------------------------------------------------------------------
Total correction                          0.00576975 Eh       3.62 kcal/mol

--------
ENTHALPY
--------

The enthalpy is H = U + kB*T
                kB is Boltzmann's constant
Total free energy                 ...   -440.53945063 Eh
Thermal Enthalpy correction       ...      0.00094421 Eh       0.59 kcal/mol
-----------------------------------------------------------------------
Total Enthalpy                    ...   -440.53850642 Eh

Note: Rotational entropy computed according to Herzberg
Infrared and Raman Spectra, Chapter V,1, Van Nostrand Reinhold, 1945
Point Group:  C2v, Symmetry Number:   2
Rotational constants in cm-1:     0.043183     0.043132     0.021579

Vibrational entropy computed according to the QRRHO of S. Grimme
Chem.Eur.J. 2012 18 9955

-------
ENTROPY
-------

The entropy contributions are T*S = T*(S(el)+S(vib)+S(rot)+S(trans))
     S(el)   - electronic entropy
     S(vib)  - vibrational entropy
     S(rot)  - rotational entropy
     S(trans)- translational entropy
The entropies will be listed as mutliplied by the temperature to get
units of energy

Electronic entropy                ...      0.00000000 Eh      0.00 kcal/mol
Vibrational entropy               ...      0.00397584 Eh      2.49 kcal/mol
Rotational entropy                ...      0.01363478 Eh      8.56 kcal/mol
Translational entropy             ...      0.02053447 Eh     12.89 kcal/mol
-----------------------------------------------------------------------
Final entropy term                ...      0.03814509 Eh     23.94 kcal/mol

In case the symmetry of your molecule has not been determined correctly
or in case you have a reason to use a different symmetry number we print
out the resulting rotational entropy values for sn=1,12 :
 --------------------------------------------------------
|  sn= 1 | S(rot)=       0.01428924 Eh      8.97 kcal/mol|
|  sn= 2 | S(rot)=       0.01363478 Eh      8.56 kcal/mol|
|  sn= 3 | S(rot)=       0.01325195 Eh      8.32 kcal/mol|
|  sn= 4 | S(rot)=       0.01298032 Eh      8.15 kcal/mol|
|  sn= 5 | S(rot)=       0.01276964 Eh      8.01 kcal/mol|
|  sn= 6 | S(rot)=       0.01259749 Eh      7.91 kcal/mol|
|  sn= 7 | S(rot)=       0.01245195 Eh      7.81 kcal/mol|
|  sn= 8 | S(rot)=       0.01232587 Eh      7.73 kcal/mol|
|  sn= 9 | S(rot)=       0.01221466 Eh      7.66 kcal/mol|
|  sn=10 | S(rot)=       0.01211518 Eh      7.60 kcal/mol|
|  sn=11 | S(rot)=       0.01202519 Eh      7.55 kcal/mol|
|  sn=12 | S(rot)=       0.01194303 Eh      7.49 kcal/mol|
 --------------------------------------------------------

-------------------
GIBBS FREE ENERGY
-------------------

The Gibbs free energy is G = H - T*S

Total enthalpy                    ...   -440.53850642 Eh
Total entropy correction          ...     -0.03814509 Eh    -23.94 kcal/mol
-----------------------------------------------------------------------
Final Gibbs free energy         ...   -440.57665151 Eh

For completeness - the Gibbs free energy minus the electronic energy
G-E(el)                           ...     -0.03143113 Eh    -19.72 kcal/mol

                             ****ORCA TERMINATED NORMALLY****
TOTAL RUN TIME: 0 days 0 hours 4 minutes 41 seconds 389 msec
