                         Program Version 4.2.0 -  RELEASE  -
|  1> #
|  2> # Ag03N0_LIN ri-B2PLYP-D3BJ/Def2-TZVPPD
|  3> #
|  4> ! rijk ri-b2plyp d3bj def2-tzvppd def2/jk def2-tzvppd/c grid4 nofinalgrid opt xyzfile numfreq
|  5>
|  6> *xyz 0 2
|  7> Ag       0.000000    0.000000    0.000000
|  8> Ag       0.000000    0.000000    2.592532
|  9> Ag       0.000000    0.000000   -2.592532
| 10> *
| 11>
| 12> %maxcore 5000
| 13>
| 14> %pal
| 15> nprocs = 24
| 16> end
| 17>
| 18>
| 19>                          ****END OF INPUT****
 Total Charge           Charge          ....    0
 Multiplicity           Mult            ....    2
 Number of Electrons    NEL             ....   57
Dispersion correction            ... done
MP2 TOTAL ENERGY:     -440.743804513 Eh
Dispersion correction           -0.004382749
FINAL SINGLE POINT ENERGY      -440.748187261769
Dispersion correction            ... done
MP2 TOTAL ENERGY:     -440.743840306 Eh
Dispersion correction           -0.004380016
FINAL SINGLE POINT ENERGY      -440.748220321379
FINAL SINGLE POINT ENERGY      -440.748421637769
Dispersion correction            ... done
MP2 TOTAL ENERGY:     -440.744077690 Eh
Dispersion correction           -0.004345074
FINAL SINGLE POINT ENERGY      -440.748422763173
                    ***********************HURRAY********************

CARTESIAN COORDINATES (ANGSTROEM)
---------------------------------
  Ag     0.000000   -0.000000   -0.000000
  Ag    -0.000000    0.000000    2.628231
  Ag    -0.000000    0.000000   -2.628231

 Multiplicity           Mult            ....    2
 Number of Electrons    NEL             ....   57
 Basis Dimension        Dim             ....  168

ORBITAL ENERGIES
----------------
                 SPIN UP ORBITALS
  NO   OCC          E(Eh)            E(eV)
   0   1.0000      -3.980748      -108.3216
   1   1.0000      -3.980742      -108.3215
   2   1.0000      -3.965453      -107.9055
   3   1.0000      -2.517156       -68.4953
   4   1.0000      -2.516084       -68.4661
   5   1.0000      -2.513513       -68.3962
   6   1.0000      -2.513513       -68.3962
   7   1.0000      -2.513509       -68.3961
   8   1.0000      -2.513509       -68.3961
   9   1.0000      -2.501517       -68.0698
  10   1.0000      -2.497921       -67.9719
  11   1.0000      -2.497921       -67.9719
  12   1.0000      -0.446032       -12.1372
  13   1.0000      -0.422759       -11.5039
  14   1.0000      -0.422759       -11.5039
  15   1.0000      -0.407562       -11.0903
  16   1.0000      -0.405893       -11.0449
  17   1.0000      -0.405893       -11.0449
  18   1.0000      -0.403072       -10.9682
  19   1.0000      -0.403072       -10.9681
  20   1.0000      -0.402052       -10.9404
  21   1.0000      -0.402051       -10.9404
  22   1.0000      -0.382540       -10.4094
  23   1.0000      -0.382540       -10.4094
  24   1.0000      -0.369838       -10.0638
  25   1.0000      -0.369838       -10.0638
  26   1.0000      -0.359879        -9.7928
  27   1.0000      -0.247133        -6.7248
  28   1.0000      -0.206609        -5.6221
  29   0.0000      -0.039561        -1.0765
  30   0.0000      -0.003036        -0.0826
  31   0.0000      -0.003036        -0.0826
  32   0.0000       0.024004         0.6532
  33   0.0000       0.028934         0.7873

                 SPIN DOWN ORBITALS
  NO   OCC          E(Eh)            E(eV)
   0   1.0000      -3.979492      -108.2875
   1   1.0000      -3.979485      -108.2873
   2   1.0000      -3.966045      -107.9216
   3   1.0000      -2.517260       -68.4981
   4   1.0000      -2.516285       -68.4716
   5   1.0000      -2.513844       -68.4052
   6   1.0000      -2.513844       -68.4052
   7   1.0000      -2.513828       -68.4047
   8   1.0000      -2.513828       -68.4047
   9   1.0000      -2.501097       -68.0583
  10   1.0000      -2.498516       -67.9881
  11   1.0000      -2.498516       -67.9881
  12   1.0000      -0.442965       -12.0537
  13   1.0000      -0.420292       -11.4367
  14   1.0000      -0.420292       -11.4367
  15   1.0000      -0.405306       -11.0289
  16   1.0000      -0.402932       -10.9643
  17   1.0000      -0.402932       -10.9643
  18   1.0000      -0.400193       -10.8898
  19   1.0000      -0.400192       -10.8898
  20   1.0000      -0.398975       -10.8567
  21   1.0000      -0.398975       -10.8567
  22   1.0000      -0.383415       -10.4332
  23   1.0000      -0.383414       -10.4332
  24   1.0000      -0.369995       -10.0681
  25   1.0000      -0.369995       -10.0681
  26   1.0000      -0.357989        -9.7414
  27   1.0000      -0.219873        -5.9831
  28   0.0000      -0.092799        -2.5252
  29   0.0000      -0.022270        -0.6060
  30   0.0000       0.003697         0.1006
  31   0.0000       0.003697         0.1006
  32   0.0000       0.036852         1.0028

Dispersion correction            ... done

MULLIKEN ATOMIC CHARGES AND SPIN DENSITIES
------------------------------------------
   0 Ag:   -0.041827   -0.095291
   1 Ag:    0.020913    0.547646
   2 Ag:    0.020914    0.547646
Sum of atomic charges       :   -0.0000000

LOEWDIN ATOMIC CHARGES AND SPIN DENSITIES
-----------------------------------------
   0 Ag:   -0.181511    0.277292
   1 Ag:    0.090755    0.361354
   2 Ag:    0.090755    0.361354

  Mayer bond orders larger than 0.100000
B(  0-Ag,  1-Ag) :   0.5680 B(  0-Ag,  2-Ag) :   0.5680 B(  1-Ag,  2-Ag) :   0.1602

MP2 TOTAL ENERGY:     -440.744077692 Eh
Dispersion correction           -0.004344874
FINAL SINGLE POINT ENERGY      -440.748422565973

DIPOLE MOMENT
-------------
                                X             Y             Z
Electronic contribution:     -0.00000       0.00000       0.00000
Nuclear contribution   :     -0.00000       0.00000      -0.00000
                        -----------------------------------------
Total Dipole Moment    :     -0.00000       0.00000       0.00000
                        -----------------------------------------
Magnitude (a.u.)       :      0.00000
Magnitude (Debye)      :      0.00000

VIBRATIONAL FREQUENCIES
-----------------------

Scaling factor for frequencies =  1.000000000 (already applied!)

   0:         0.00 cm**-1
   1:         0.00 cm**-1
   2:         0.00 cm**-1
   3:         0.00 cm**-1
   4:         0.00 cm**-1
   5:         0.00 cm**-1
   6:        23.30 cm**-1
   7:       110.68 cm**-1
   8:       174.88 cm**-1

IR SPECTRUM
-----------

 Mode    freq (cm**-1)   T**2         TX         TY         TZ
-------------------------------------------------------------------
   6:        23.30    0.194277  ( -0.305716   0.317514   0.000013)
   7:       110.68    0.000000  ( -0.000003   0.000009  -0.000036)
   8:       174.88    3.439549  (  0.000001   0.000002  -1.854602)

--------------------------
THERMOCHEMISTRY AT 298.15K
--------------------------

Temperature         ... 298.15 K
Pressure            ... 1.00 atm
Total Mass          ... 323.61 AMU
The molecule is recognized as being linear

Throughout the following assumptions are being made:
  (1) The electronic state is orbitally nondegenerate
      but the spin degeneracy is treated
  (2) There are no thermally accessible electronically excited states
  (3) Hindered rotations indicated by low frequency modes are not
      treated as such but are treated as vibrations and this may
      cause some error
  (4) All equations used are the standard statistical mechanics
      equations for an ideal gas
  (5) All vibrations are strictly harmonic

freq.      23.30  E(vib)   ...       0.56
freq.     110.68  E(vib)   ...       0.45
freq.     174.88  E(vib)   ...       0.38

------------
INNER ENERGY
------------

The inner energy is: U= E(el) + E(ZPE) + E(vib) + E(rot) + E(trans)
    E(el)   - is the total energy from the electronic structure calculation
              = E(kin-el) + E(nuc-el) + E(el-el) + E(nuc-nuc)
    E(ZPE)  - the the zero temperature vibrational energy from the frequency calculation
    E(vib)  - the the finite temperature correction to E(ZPE) due to population
              of excited vibrational states
    E(rot)  - is the rotational thermal energy
    E(trans)- is the translational thermal energy

Summary of contributions to the inner energy U:
Electronic energy                ...   -440.74842250 Eh
Zero point energy                ...      0.00070364 Eh       0.44 kcal/mol
Thermal vibrational correction   ...      0.00220770 Eh       1.39 kcal/mol
Thermal rotational correction    ...      0.00094418 Eh       0.59 kcal/mol
Thermal translational correction ...      0.00141627 Eh       0.89 kcal/mol
-----------------------------------------------------------------------
Total thermal energy                   -440.74315070 Eh

Summary of corrections to the electronic energy:
(perhaps to be used in another calculation)
Total thermal correction                  0.00456815 Eh       2.87 kcal/mol
Non-thermal (ZPE) correction              0.00070364 Eh       0.44 kcal/mol
-----------------------------------------------------------------------
Total correction                          0.00527179 Eh       3.31 kcal/mol

--------
ENTHALPY
--------

The enthalpy is H = U + kB*T
                kB is Boltzmann's constant
Total free energy                 ...   -440.74315070 Eh
Thermal Enthalpy correction       ...      0.00094421 Eh       0.59 kcal/mol
-----------------------------------------------------------------------
Total Enthalpy                    ...   -440.74220649 Eh

Note: Rotational entropy computed according to Herzberg
Infrared and Raman Spectra, Chapter V,1, Van Nostrand Reinhold, 1945
Point Group:  Dinfh, Symmetry Number:   2
Rotational constants in cm-1:     0.000000     0.011312     0.011312

Vibrational entropy computed according to the QRRHO of S. Grimme
Chem.Eur.J. 2012 18 9955

-------
ENTROPY
-------

The entropy contributions are T*S = T*(S(el)+S(vib)+S(rot)+S(trans))
     S(el)   - electronic entropy
     S(vib)  - vibrational entropy
     S(rot)  - rotational entropy
     S(trans)- translational entropy
The entropies will be listed as mutliplied by the temperature to get
units of energy

Electronic entropy                ...      0.00065446 Eh      0.41 kcal/mol
Vibrational entropy               ...      0.00462727 Eh      2.90 kcal/mol
Rotational entropy                ...      0.00955752 Eh      6.00 kcal/mol
Translational entropy             ...      0.02053447 Eh     12.89 kcal/mol
-----------------------------------------------------------------------
Final entropy term                ...      0.03537371 Eh     22.20 kcal/mol

In case the symmetry of your molecule has not been determined correctly
or in case you have a reason to use a different symmetry number we print
out the resulting rotational entropy values for sn=1,12 :
 --------------------------------------------------------
|  sn= 1 | S(rot)=      -0.00024146 Eh     -0.15 kcal/mol|
|  sn= 2 | S(rot)=      -0.00089592 Eh     -0.56 kcal/mol|
|  sn= 3 | S(rot)=      -0.00127875 Eh     -0.80 kcal/mol|
|  sn= 4 | S(rot)=      -0.00155037 Eh     -0.97 kcal/mol|
|  sn= 5 | S(rot)=      -0.00176106 Eh     -1.11 kcal/mol|
|  sn= 6 | S(rot)=      -0.00193321 Eh     -1.21 kcal/mol|
|  sn= 7 | S(rot)=      -0.00207875 Eh     -1.30 kcal/mol|
|  sn= 8 | S(rot)=      -0.00220483 Eh     -1.38 kcal/mol|
|  sn= 9 | S(rot)=      -0.00231604 Eh     -1.45 kcal/mol|
|  sn=10 | S(rot)=      -0.00241552 Eh     -1.52 kcal/mol|
|  sn=11 | S(rot)=      -0.00250551 Eh     -1.57 kcal/mol|
|  sn=12 | S(rot)=      -0.00258766 Eh     -1.62 kcal/mol|
 --------------------------------------------------------

-------------------
GIBBS FREE ENERGY
-------------------

The Gibbs free energy is G = H - T*S

Total enthalpy                    ...   -440.74220649 Eh
Total entropy correction          ...     -0.03537371 Eh    -22.20 kcal/mol
-----------------------------------------------------------------------
Final Gibbs free energy         ...   -440.77758021 Eh

For completeness - the Gibbs free energy minus the electronic energy
G-E(el)                           ...     -0.02915771 Eh    -18.30 kcal/mol

                             ****ORCA TERMINATED NORMALLY****
TOTAL RUN TIME: 0 days 0 hours 5 minutes 19 seconds 788 msec
