                         Program Version 4.2.0 -  RELEASE  -
|  1> #
|  2> # Au01N0_F ri-B2PLYP-D3BJ/Def2-TZVPPD
|  3> #
|  4> ! rijk ri-b2plyp d3bj def2-tzvppd def2/jk def2-tzvppd/c grid4 nofinalgrid opt xyzfile numfreq
|  5>
|  6> *xyz 0 1
|  7> Au       0.000000    0.000000    0.196853
|  8> F        0.000000    0.000000   -1.727931
|  9> *
| 10>
| 11> %maxcore 5000
| 12>
| 13> %pal
| 14> nprocs = 24
| 15> end
| 16>
| 17>
| 18>                          ****END OF INPUT****
 Total Charge           Charge          ....    0
 Multiplicity           Mult            ....    1
 Number of Electrons    NEL             ....   28
Dispersion correction            ... done
MP2 TOTAL ENERGY:     -235.395759740 Eh
Dispersion correction           -0.000500188
FINAL SINGLE POINT ENERGY      -235.396259928062
Dispersion correction            ... done
MP2 TOTAL ENERGY:     -235.395777085 Eh
Dispersion correction           -0.000499694
FINAL SINGLE POINT ENERGY      -235.396276778959
FINAL SINGLE POINT ENERGY      -235.396372535833
Dispersion correction            ... done
MP2 TOTAL ENERGY:     -235.395872903 Eh
Dispersion correction           -0.000499935
FINAL SINGLE POINT ENERGY      -235.396372838172
                    ***********************HURRAY********************

CARTESIAN COORDINATES (ANGSTROEM)
---------------------------------
  Au     0.000000    0.000000    0.205817
  F      0.000000    0.000000   -1.736895

 Multiplicity           Mult            ....    1
 Number of Electrons    NEL             ....   28
 Basis Dimension        Dim             ....   99

ORBITAL ENERGIES
----------------

  NO   OCC          E(Eh)            E(eV)
   0   2.0000     -25.277034      -687.8231
   1   2.0000      -4.419947      -120.2729
   2   2.0000      -2.546805       -69.3021
   3   2.0000      -2.534301       -68.9618
   4   2.0000      -2.534301       -68.9618
   5   2.0000      -1.237504       -33.6742
   6   2.0000      -0.503808       -13.7093
   7   2.0000      -0.472311       -12.8522
   8   2.0000      -0.472311       -12.8522
   9   2.0000      -0.405208       -11.0263
  10   2.0000      -0.405208       -11.0263
  11   2.0000      -0.376328       -10.2404
  12   2.0000      -0.376328       -10.2404
  13   2.0000      -0.348228        -9.4758
  14   0.0000      -0.102984        -2.8023
  15   0.0000       0.022057         0.6002
  16   0.0000       0.022057         0.6002
  17   0.0000       0.061273         1.6673
  18   0.0000       0.123346         3.3564

Dispersion correction            ... done

MULLIKEN ATOMIC CHARGES
-----------------------
   0 Au:    0.468416
   1 F :   -0.468416
Sum of atomic charges:   -0.0000000

LOEWDIN ATOMIC CHARGES
----------------------
   0 Au:    0.606623
   1 F :   -0.606623

  Mayer bond orders larger than 0.100000
B(  0-Au,  1-F ) :   0.8030

MP2 TOTAL ENERGY:     -235.395872957 Eh
Dispersion correction           -0.000499934
FINAL SINGLE POINT ENERGY      -235.396372891508

DIPOLE MOMENT
-------------
                                X             Y             Z
Electronic contribution:     -0.00000       0.00000      25.68826
Nuclear contribution   :      0.00000       0.00000     -23.99818
                        -----------------------------------------
Total Dipole Moment    :     -0.00000       0.00000       1.69008
                        -----------------------------------------
Magnitude (a.u.)       :      1.69008
Magnitude (Debye)      :      4.29583

VIBRATIONAL FREQUENCIES
-----------------------

Scaling factor for frequencies =  1.000000000 (already applied!)

   0:         0.00 cm**-1
   1:         0.00 cm**-1
   2:         0.00 cm**-1
   3:         0.00 cm**-1
   4:         0.00 cm**-1
   5:       538.47 cm**-1

IR SPECTRUM
-----------

 Mode    freq (cm**-1)   T**2         TX         TY         TZ
-------------------------------------------------------------------
   5:       538.47   45.506023  (  0.000002   0.000001   6.745815)

--------------------------
THERMOCHEMISTRY AT 298.15K
--------------------------

Temperature         ... 298.15 K
Pressure            ... 1.00 atm
Total Mass          ... 215.96 AMU
The molecule is recognized as being linear

Throughout the following assumptions are being made:
  (1) The electronic state is orbitally nondegenerate
  (2) There are no thermally accessible electronically excited states
  (3) Hindered rotations indicated by low frequency modes are not
      treated as such but are treated as vibrations and this may
      cause some error
  (4) All equations used are the standard statistical mechanics
      equations for an ideal gas
  (5) All vibrations are strictly harmonic

freq.     538.47  E(vib)   ...       0.12

------------
INNER ENERGY
------------

The inner energy is: U= E(el) + E(ZPE) + E(vib) + E(rot) + E(trans)
    E(el)   - is the total energy from the electronic structure calculation
              = E(kin-el) + E(nuc-el) + E(el-el) + E(nuc-nuc)
    E(ZPE)  - the the zero temperature vibrational energy from the frequency calculation
    E(vib)  - the the finite temperature correction to E(ZPE) due to population
              of excited vibrational states
    E(rot)  - is the rotational thermal energy
    E(trans)- is the translational thermal energy

Summary of contributions to the inner energy U:
Electronic energy                ...   -235.39637288 Eh
Zero point energy                ...      0.00122672 Eh       0.77 kcal/mol
Thermal vibrational correction   ...      0.00019719 Eh       0.12 kcal/mol
Thermal rotational correction    ...      0.00094418 Eh       0.59 kcal/mol
Thermal translational correction ...      0.00141627 Eh       0.89 kcal/mol
-----------------------------------------------------------------------
Total thermal energy                   -235.39258853 Eh

Summary of corrections to the electronic energy:
(perhaps to be used in another calculation)
Total thermal correction                  0.00255764 Eh       1.60 kcal/mol
Non-thermal (ZPE) correction              0.00122672 Eh       0.77 kcal/mol
-----------------------------------------------------------------------
Total correction                          0.00378436 Eh       2.37 kcal/mol

--------
ENTHALPY
--------

The enthalpy is H = U + kB*T
                kB is Boltzmann's constant
Total free energy                 ...   -235.39258853 Eh
Thermal Enthalpy correction       ...      0.00094421 Eh       0.59 kcal/mol
-----------------------------------------------------------------------
Total Enthalpy                    ...   -235.39164432 Eh

Note: Rotational entropy computed according to Herzberg
Infrared and Raman Spectra, Chapter V,1, Van Nostrand Reinhold, 1945
Point Group:  Cinfv, Symmetry Number:   1
Rotational constants in cm-1:     0.000000     0.257788     0.257788

Vibrational entropy computed according to the QRRHO of S. Grimme
Chem.Eur.J. 2012 18 9955

-------
ENTROPY
-------

The entropy contributions are T*S = T*(S(el)+S(vib)+S(rot)+S(trans))
     S(el)   - electronic entropy
     S(vib)  - vibrational entropy
     S(rot)  - rotational entropy
     S(trans)- translational entropy
The entropies will be listed as mutliplied by the temperature to get
units of energy

Electronic entropy                ...      0.00000000 Eh      0.00 kcal/mol
Vibrational entropy               ...      0.00027052 Eh      0.17 kcal/mol
Rotational entropy                ...      0.00726021 Eh      4.56 kcal/mol
Translational entropy             ...      0.01996169 Eh     12.53 kcal/mol
-----------------------------------------------------------------------
Final entropy term                ...      0.02749242 Eh     17.25 kcal/mol

In case the symmetry of your molecule has not been determined correctly
or in case you have a reason to use a different symmetry number we print
out the resulting rotational entropy values for sn=1,12 :
 --------------------------------------------------------
|  sn= 1 | S(rot)=             -inf Eh      -inf kcal/mol|
|  sn= 2 | S(rot)=             -inf Eh      -inf kcal/mol|
|  sn= 3 | S(rot)=             -inf Eh      -inf kcal/mol|
|  sn= 4 | S(rot)=             -inf Eh      -inf kcal/mol|
|  sn= 5 | S(rot)=             -inf Eh      -inf kcal/mol|
|  sn= 6 | S(rot)=             -inf Eh      -inf kcal/mol|
|  sn= 7 | S(rot)=             -inf Eh      -inf kcal/mol|
|  sn= 8 | S(rot)=             -inf Eh      -inf kcal/mol|
|  sn= 9 | S(rot)=             -inf Eh      -inf kcal/mol|
|  sn=10 | S(rot)=             -inf Eh      -inf kcal/mol|
|  sn=11 | S(rot)=             -inf Eh      -inf kcal/mol|
|  sn=12 | S(rot)=             -inf Eh      -inf kcal/mol|
 --------------------------------------------------------

-------------------
GIBBS FREE ENERGY
-------------------

The Gibbs free energy is G = H - T*S

Total enthalpy                    ...   -235.39164432 Eh
Total entropy correction          ...     -0.02749242 Eh    -17.25 kcal/mol
-----------------------------------------------------------------------
Final Gibbs free energy         ...   -235.41913674 Eh

For completeness - the Gibbs free energy minus the electronic energy
G-E(el)                           ...     -0.02276385 Eh    -14.28 kcal/mol

                             ****ORCA TERMINATED NORMALLY****
TOTAL RUN TIME: 0 days 0 hours 1 minutes 23 seconds 462 msec
