                         Program Version 4.2.0 -  RELEASE  -
|  1> #
|  2> # Au02N0 ri-B2PLYP-D3BJ/Def2-TZVPPD
|  3> #
|  4> ! rijk ri-b2plyp d3bj def2-tzvppd def2/jk def2-tzvppd/c grid4 nofinalgrid opt xyzfile numfreq
|  5>
|  6> *xyz 0 1
|  7> Au       0.000000    0.000000    1.239541
|  8> Au       0.000000    0.000000   -1.239541
|  9> *
| 10>
| 11> %maxcore 5000
| 12>
| 13> %pal
| 14> nprocs = 24
| 15> end
| 16>
| 17>
| 18>                          ****END OF INPUT****
 Total Charge           Charge          ....    0
 Multiplicity           Mult            ....    1
 Number of Electrons    NEL             ....   38
Dispersion correction            ... done
MP2 TOTAL ENERGY:     -271.217013159 Eh
Dispersion correction           -0.002233966
FINAL SINGLE POINT ENERGY      -271.219247124079
Dispersion correction            ... done
MP2 TOTAL ENERGY:     -271.214358557 Eh
Dispersion correction           -0.002212697
FINAL SINGLE POINT ENERGY      -271.216571254546
FINAL SINGLE POINT ENERGY      -271.219411077880
FINAL SINGLE POINT ENERGY      -271.219459418590
Dispersion correction            ... done
MP2 TOTAL ENERGY:     -271.217235171 Eh
Dispersion correction           -0.002230174
FINAL SINGLE POINT ENERGY      -271.219465345108
                    ***********************HURRAY********************

CARTESIAN COORDINATES (ANGSTROEM)
---------------------------------
  Au     0.000000    0.000000    1.255180
  Au     0.000000    0.000000   -1.255180

 Multiplicity           Mult            ....    1
 Number of Electrons    NEL             ....   38
 Basis Dimension        Dim             ....  118

ORBITAL ENERGIES
----------------

  NO   OCC          E(Eh)            E(eV)
   0   2.0000      -4.367465      -118.8448
   1   2.0000      -4.366726      -118.8247
   2   2.0000      -2.497163       -67.9513
   3   2.0000      -2.483871       -67.5896
   4   2.0000      -2.483139       -67.5696
   5   2.0000      -2.483139       -67.5696
   6   2.0000      -2.482011       -67.5390
   7   2.0000      -2.482011       -67.5390
   8   2.0000      -0.426734       -11.6120
   9   2.0000      -0.398888       -10.8543
  10   2.0000      -0.398888       -10.8543
  11   2.0000      -0.363713        -9.8971
  12   2.0000      -0.363707        -9.8970
  13   2.0000      -0.350779        -9.5452
  14   2.0000      -0.350773        -9.5450
  15   2.0000      -0.333685        -9.0800
  16   2.0000      -0.333685        -9.0800
  17   2.0000      -0.324307        -8.8248
  18   2.0000      -0.274729        -7.4758
  19   0.0000      -0.080652        -2.1947
  20   0.0000       0.008912         0.2425
  21   0.0000       0.008912         0.2425
  22   0.0000       0.029494         0.8026
  23   0.0000       0.073680         2.0049

Dispersion correction            ... done

MULLIKEN ATOMIC CHARGES
-----------------------
   0 Au:    0.000000
   1 Au:   -0.000000
Sum of atomic charges:   -0.0000000

LOEWDIN ATOMIC CHARGES
----------------------
   0 Au:    0.000000
   1 Au:   -0.000000

  Mayer bond orders larger than 0.100000
B(  0-Au,  1-Au) :   1.0587

MP2 TOTAL ENERGY:     -271.217235133 Eh
Dispersion correction           -0.002230200
FINAL SINGLE POINT ENERGY      -271.219465333627

DIPOLE MOMENT
-------------
                                X             Y             Z
Electronic contribution:     -0.00000       0.00000      -0.00000
Nuclear contribution   :      0.00000       0.00000       0.00000
                        -----------------------------------------
Total Dipole Moment    :     -0.00000       0.00000      -0.00000
                        -----------------------------------------
Magnitude (a.u.)       :      0.00000
Magnitude (Debye)      :      0.00000

VIBRATIONAL FREQUENCIES
-----------------------

Scaling factor for frequencies =  1.000000000 (already applied!)

   0:         0.00 cm**-1
   1:         0.00 cm**-1
   2:         0.00 cm**-1
   3:         0.00 cm**-1
   4:         0.00 cm**-1
   5:       180.20 cm**-1

IR SPECTRUM
-----------

 Mode    freq (cm**-1)   T**2         TX         TY         TZ
-------------------------------------------------------------------
   5:       180.20    0.000000  (  0.000003   0.000004  -0.000017)

--------------------------
THERMOCHEMISTRY AT 298.15K
--------------------------

Temperature         ... 298.15 K
Pressure            ... 1.00 atm
Total Mass          ... 393.93 AMU
The molecule is recognized as being linear

Throughout the following assumptions are being made:
  (1) The electronic state is orbitally nondegenerate
  (2) There are no thermally accessible electronically excited states
  (3) Hindered rotations indicated by low frequency modes are not
      treated as such but are treated as vibrations and this may
      cause some error
  (4) All equations used are the standard statistical mechanics
      equations for an ideal gas
  (5) All vibrations are strictly harmonic

freq.     180.20  E(vib)   ...       0.37

------------
INNER ENERGY
------------

The inner energy is: U= E(el) + E(ZPE) + E(vib) + E(rot) + E(trans)
    E(el)   - is the total energy from the electronic structure calculation
              = E(kin-el) + E(nuc-el) + E(el-el) + E(nuc-nuc)
    E(ZPE)  - the the zero temperature vibrational energy from the frequency calculation
    E(vib)  - the the finite temperature correction to E(ZPE) due to population
              of excited vibrational states
    E(rot)  - is the rotational thermal energy
    E(trans)- is the translational thermal energy

Summary of contributions to the inner energy U:
Electronic energy                ...   -271.21946518 Eh
Zero point energy                ...      0.00041053 Eh       0.26 kcal/mol
Thermal vibrational correction   ...      0.00059244 Eh       0.37 kcal/mol
Thermal rotational correction    ...      0.00094418 Eh       0.59 kcal/mol
Thermal translational correction ...      0.00141627 Eh       0.89 kcal/mol
-----------------------------------------------------------------------
Total thermal energy                   -271.21610175 Eh

Summary of corrections to the electronic energy:
(perhaps to be used in another calculation)
Total thermal correction                  0.00295289 Eh       1.85 kcal/mol
Non-thermal (ZPE) correction              0.00041053 Eh       0.26 kcal/mol
-----------------------------------------------------------------------
Total correction                          0.00336342 Eh       2.11 kcal/mol

--------
ENTHALPY
--------

The enthalpy is H = U + kB*T
                kB is Boltzmann's constant
Total free energy                 ...   -271.21610175 Eh
Thermal Enthalpy correction       ...      0.00094421 Eh       0.59 kcal/mol
-----------------------------------------------------------------------
Total Enthalpy                    ...   -271.21515755 Eh

Note: Rotational entropy computed according to Herzberg
Infrared and Raman Spectra, Chapter V,1, Van Nostrand Reinhold, 1945
Point Group:  Dinfh, Symmetry Number:   2
Rotational constants in cm-1:     0.000000     0.027162     0.027162

Vibrational entropy computed according to the QRRHO of S. Grimme
Chem.Eur.J. 2012 18 9955

-------
ENTROPY
-------

The entropy contributions are T*S = T*(S(el)+S(vib)+S(rot)+S(trans))
     S(el)   - electronic entropy
     S(vib)  - vibrational entropy
     S(rot)  - rotational entropy
     S(trans)- translational entropy
The entropies will be listed as mutliplied by the temperature to get
units of energy

Electronic entropy                ...      0.00000000 Eh      0.00 kcal/mol
Vibrational entropy               ...      0.00110301 Eh      0.69 kcal/mol
Rotational entropy                ...      0.00873046 Eh      5.48 kcal/mol
Translational entropy             ...      0.02081297 Eh     13.06 kcal/mol
-----------------------------------------------------------------------
Final entropy term                ...      0.03064644 Eh     19.23 kcal/mol

In case the symmetry of your molecule has not been determined correctly
or in case you have a reason to use a different symmetry number we print
out the resulting rotational entropy values for sn=1,12 :
 --------------------------------------------------------
|  sn= 1 | S(rot)=             -inf Eh      -inf kcal/mol|
|  sn= 2 | S(rot)=             -inf Eh      -inf kcal/mol|
|  sn= 3 | S(rot)=             -inf Eh      -inf kcal/mol|
|  sn= 4 | S(rot)=             -inf Eh      -inf kcal/mol|
|  sn= 5 | S(rot)=             -inf Eh      -inf kcal/mol|
|  sn= 6 | S(rot)=             -inf Eh      -inf kcal/mol|
|  sn= 7 | S(rot)=             -inf Eh      -inf kcal/mol|
|  sn= 8 | S(rot)=             -inf Eh      -inf kcal/mol|
|  sn= 9 | S(rot)=             -inf Eh      -inf kcal/mol|
|  sn=10 | S(rot)=             -inf Eh      -inf kcal/mol|
|  sn=11 | S(rot)=             -inf Eh      -inf kcal/mol|
|  sn=12 | S(rot)=             -inf Eh      -inf kcal/mol|
 --------------------------------------------------------

-------------------
GIBBS FREE ENERGY
-------------------

The Gibbs free energy is G = H - T*S

Total enthalpy                    ...   -271.21515755 Eh
Total entropy correction          ...     -0.03064644 Eh    -19.23 kcal/mol
-----------------------------------------------------------------------
Final Gibbs free energy         ...   -271.24580398 Eh

For completeness - the Gibbs free energy minus the electronic energy
G-E(el)                           ...     -0.02633880 Eh    -16.53 kcal/mol

                             ****ORCA TERMINATED NORMALLY****
TOTAL RUN TIME: 0 days 0 hours 2 minutes 14 seconds 23 msec
