                         Program Version 4.2.0 -  RELEASE  -
|  1> #
|  2> # Au03C1_LIN ri-B2PLYP-D3BJ/Def2-TZVPPD
|  3> #
|  4> ! rijk ri-b2plyp d3bj def2-tzvppd def2/jk def2-tzvppd/c grid4 nofinalgrid opt xyzfile numfreq
|  5>
|  6> *xyz 1 1
|  7> Au       0.000000    0.000000    0.000000
|  8> Au       0.000000    0.000000    2.576864
|  9> Au       0.000000    0.000000   -2.576864
| 10> *
| 11>
| 12> %maxcore 5000
| 13>
| 14> %pal
| 15> nprocs = 24
| 16> end
| 17>
| 18>
| 19>                          ****END OF INPUT****
 Total Charge           Charge          ....    1
 Multiplicity           Mult            ....    1
 Number of Electrons    NEL             ....   56
Dispersion correction            ... done
MP2 TOTAL ENERGY:     -406.508048948 Eh
Dispersion correction           -0.004903825
FINAL SINGLE POINT ENERGY      -406.512952773651
Dispersion correction            ... done
MP2 TOTAL ENERGY:     -406.506600619 Eh
Dispersion correction           -0.004764645
FINAL SINGLE POINT ENERGY      -406.511365264280
FINAL SINGLE POINT ENERGY      -406.513112082184
FINAL SINGLE POINT ENERGY      -406.513136828030
Dispersion correction            ... done
MP2 TOTAL ENERGY:     -406.508267914 Eh
Dispersion correction           -0.004869920
FINAL SINGLE POINT ENERGY      -406.513137833429
                    ***********************HURRAY********************

CARTESIAN COORDINATES (ANGSTROEM)
---------------------------------
  Au     0.000000    0.000000   -0.000003
  Au    -0.000000   -0.000000    2.602745
  Au    -0.000000   -0.000000   -2.602742

 Multiplicity           Mult            ....    1
 Number of Electrons    NEL             ....   56
 Basis Dimension        Dim             ....  177

ORBITAL ENERGIES
----------------

  NO   OCC          E(Eh)            E(eV)
   0   2.0000      -4.579830      -124.6235
   1   2.0000      -4.579828      -124.6235
   2   2.0000      -4.537804      -123.4799
   3   2.0000      -2.704578       -73.5953
   4   2.0000      -2.703549       -73.5673
   5   2.0000      -2.699151       -73.4476
   6   2.0000      -2.699151       -73.4476
   7   2.0000      -2.699119       -73.4468
   8   2.0000      -2.699119       -73.4468
   9   2.0000      -2.662551       -72.4517
  10   2.0000      -2.651539       -72.1521
  11   2.0000      -2.651539       -72.1521
  12   2.0000      -0.640914       -17.4401
  13   2.0000      -0.601743       -16.3742
  14   2.0000      -0.601743       -16.3742
  15   2.0000      -0.584591       -15.9075
  16   2.0000      -0.581511       -15.8237
  17   2.0000      -0.581511       -15.8237
  18   2.0000      -0.574925       -15.6445
  19   2.0000      -0.574919       -15.6443
  20   2.0000      -0.574012       -15.6197
  21   2.0000      -0.574006       -15.6195
  22   2.0000      -0.523019       -14.2321
  23   2.0000      -0.523010       -14.2318
  24   2.0000      -0.515005       -14.0140
  25   2.0000      -0.515005       -14.0140
  26   2.0000      -0.505100       -13.7445
  27   2.0000      -0.450354       -12.2547
  28   0.0000      -0.331435        -9.0188
  29   0.0000      -0.215899        -5.8749
  30   0.0000      -0.153820        -4.1857
  31   0.0000      -0.153820        -4.1857
  32   0.0000      -0.124023        -3.3748

Dispersion correction            ... done

MULLIKEN ATOMIC CHARGES
-----------------------
   0 Au:    0.015906
   1 Au:    0.492047
   2 Au:    0.492047
Sum of atomic charges:    1.0000000

LOEWDIN ATOMIC CHARGES
----------------------
   0 Au:    0.133888
   1 Au:    0.433056
   2 Au:    0.433056

  Mayer bond orders larger than 0.100000
B(  0-Au,  1-Au) :   0.5838 B(  0-Au,  2-Au) :   0.5838 B(  1-Au,  2-Au) :   0.3120

MP2 TOTAL ENERGY:     -406.508267823 Eh
Dispersion correction           -0.004869992
FINAL SINGLE POINT ENERGY      -406.513137814603

DIPOLE MOMENT
-------------
                                X             Y             Z
Electronic contribution:      0.00000      -0.00000      -0.00000
Nuclear contribution   :     -0.00000      -0.00000       0.00000
                        -----------------------------------------
Total Dipole Moment    :      0.00000      -0.00000      -0.00000
                        -----------------------------------------
Magnitude (a.u.)       :      0.00000
Magnitude (Debye)      :      0.00001

VIBRATIONAL FREQUENCIES
-----------------------

Scaling factor for frequencies =  1.000000000 (already applied!)

   0:         0.00 cm**-1
   1:         0.00 cm**-1
   2:         0.00 cm**-1
   3:         0.00 cm**-1
   4:         0.00 cm**-1
   5:         0.00 cm**-1
   6:       -41.11 cm**-1 ***imaginary mode***
   7:       101.21 cm**-1
   8:       167.35 cm**-1

IR SPECTRUM
-----------

 Mode    freq (cm**-1)   T**2         TX         TY         TZ
-------------------------------------------------------------------
   7:       101.21    0.000000  ( -0.000021  -0.000019   0.000080)
   8:       167.35   11.935103  ( -0.000002   0.000001  -3.454722)

--------------------------
THERMOCHEMISTRY AT 298.15K
--------------------------

Temperature         ... 298.15 K
Pressure            ... 1.00 atm
Total Mass          ... 590.90 AMU
The molecule is recognized as being linear

Throughout the following assumptions are being made:
  (1) The electronic state is orbitally nondegenerate
  (2) There are no thermally accessible electronically excited states
  (3) Hindered rotations indicated by low frequency modes are not
      treated as such but are treated as vibrations and this may
      cause some error
  (4) All equations used are the standard statistical mechanics
      equations for an ideal gas
  (5) All vibrations are strictly harmonic

freq.     101.21  E(vib)   ...       0.46
freq.     167.35  E(vib)   ...       0.39

------------
INNER ENERGY
------------

The inner energy is: U= E(el) + E(ZPE) + E(vib) + E(rot) + E(trans)
    E(el)   - is the total energy from the electronic structure calculation
              = E(kin-el) + E(nuc-el) + E(el-el) + E(nuc-nuc)
    E(ZPE)  - the the zero temperature vibrational energy from the frequency calculation
    E(vib)  - the the finite temperature correction to E(ZPE) due to population
              of excited vibrational states
    E(rot)  - is the rotational thermal energy
    E(trans)- is the translational thermal energy

Summary of contributions to the inner energy U:
Electronic energy                ...   -406.51313761 Eh
Zero point energy                ...      0.00061184 Eh       0.38 kcal/mol
Thermal vibrational correction   ...      0.00134604 Eh       0.84 kcal/mol
Thermal rotational correction    ...      0.00094418 Eh       0.59 kcal/mol
Thermal translational correction ...      0.00141627 Eh       0.89 kcal/mol
-----------------------------------------------------------------------
Total thermal energy                   -406.50881928 Eh

Summary of corrections to the electronic energy:
(perhaps to be used in another calculation)
Total thermal correction                  0.00370649 Eh       2.33 kcal/mol
Non-thermal (ZPE) correction              0.00061184 Eh       0.38 kcal/mol
-----------------------------------------------------------------------
Total correction                          0.00431833 Eh       2.71 kcal/mol

--------
ENTHALPY
--------

The enthalpy is H = U + kB*T
                kB is Boltzmann's constant
Total free energy                 ...   -406.50881928 Eh
Thermal Enthalpy correction       ...      0.00094421 Eh       0.59 kcal/mol
-----------------------------------------------------------------------
Total Enthalpy                    ...   -406.50787507 Eh

Note: Rotational entropy computed according to Herzberg
Infrared and Raman Spectra, Chapter V,1, Van Nostrand Reinhold, 1945
Point Group:  Cinfv, Symmetry Number:   1
Rotational constants in cm-1:     0.000000     0.006317     0.006317

Vibrational entropy computed according to the QRRHO of S. Grimme
Chem.Eur.J. 2012 18 9955

-------
ENTROPY
-------

The entropy contributions are T*S = T*(S(el)+S(vib)+S(rot)+S(trans))
     S(el)   - electronic entropy
     S(vib)  - vibrational entropy
     S(rot)  - rotational entropy
     S(trans)- translational entropy
The entropies will be listed as mutliplied by the temperature to get
units of energy

Electronic entropy                ...      0.00000000 Eh      0.00 kcal/mol
Vibrational entropy               ...      0.00265856 Eh      1.67 kcal/mol
Rotational entropy                ...      0.01076208 Eh      6.75 kcal/mol
Translational entropy             ...      0.02138721 Eh     13.42 kcal/mol
-----------------------------------------------------------------------
Final entropy term                ...      0.03480785 Eh     21.84 kcal/mol

In case the symmetry of your molecule has not been determined correctly
or in case you have a reason to use a different symmetry number we print
out the resulting rotational entropy values for sn=1,12 :
 --------------------------------------------------------
|  sn= 1 | S(rot)=      -0.00041996 Eh     -0.26 kcal/mol|
|  sn= 2 | S(rot)=      -0.00107441 Eh     -0.67 kcal/mol|
|  sn= 3 | S(rot)=      -0.00145725 Eh     -0.91 kcal/mol|
|  sn= 4 | S(rot)=      -0.00172887 Eh     -1.08 kcal/mol|
|  sn= 5 | S(rot)=      -0.00193956 Eh     -1.22 kcal/mol|
|  sn= 6 | S(rot)=      -0.00211170 Eh     -1.33 kcal/mol|
|  sn= 7 | S(rot)=      -0.00225725 Eh     -1.42 kcal/mol|
|  sn= 8 | S(rot)=      -0.00238333 Eh     -1.50 kcal/mol|
|  sn= 9 | S(rot)=      -0.00249453 Eh     -1.57 kcal/mol|
|  sn=10 | S(rot)=      -0.00259401 Eh     -1.63 kcal/mol|
|  sn=11 | S(rot)=      -0.00268400 Eh     -1.68 kcal/mol|
|  sn=12 | S(rot)=      -0.00276616 Eh     -1.74 kcal/mol|
 --------------------------------------------------------

-------------------
GIBBS FREE ENERGY
-------------------

The Gibbs free energy is G = H - T*S

Total enthalpy                    ...   -406.50787507 Eh
Total entropy correction          ...     -0.03480785 Eh    -21.84 kcal/mol
-----------------------------------------------------------------------
Final Gibbs free energy         ...   -406.54268292 Eh

For completeness - the Gibbs free energy minus the electronic energy
G-E(el)                           ...     -0.02954531 Eh    -18.54 kcal/mol

                             ****ORCA TERMINATED NORMALLY****
TOTAL RUN TIME: 0 days 0 hours 5 minutes 58 seconds 235 msec
