                         Program Version 4.2.0 -  RELEASE  -
|  1> #
|  2> # Au03N0_D3H ri-B2PLYP-D3BJ/Def2-TZVPPD
|  3> #
|  4> ! rijk ri-b2plyp d3bj def2-tzvppd def2/jk def2-tzvppd/c grid4 nofinalgrid opt xyzfile numfreq
|  5>
|  6> *xyz 0 2
|  7> Au       0.000000    1.515176   -0.000000
|  8> Au       1.312181   -0.757588    0.000000
|  9> Au      -1.312181   -0.757588   -0.000000
| 10> *
| 11>
| 12> %maxcore 5000
| 13>
| 14> %pal
| 15> nprocs = 24
| 16> end
| 17>
| 18>
| 19>                          ****END OF INPUT****
 Total Charge           Charge          ....    0
 Multiplicity           Mult            ....    2
 Number of Electrons    NEL             ....   57
Dispersion correction            ... done
MP2 TOTAL ENERGY:     -406.821246242 Eh
Dispersion correction           -0.006626723
FINAL SINGLE POINT ENERGY      -406.827872965236
Dispersion correction            ... done
MP2 TOTAL ENERGY:     -406.823513019 Eh
Dispersion correction           -0.006595050
FINAL SINGLE POINT ENERGY      -406.830108068563
FINAL SINGLE POINT ENERGY      -406.829186300030
Dispersion correction            ... done
MP2 TOTAL ENERGY:     -406.823556113 Eh
Dispersion correction           -0.006598803
FINAL SINGLE POINT ENERGY      -406.830154916093
                    ***********************HURRAY********************

CARTESIAN COORDINATES (ANGSTROEM)
---------------------------------
  Au    -0.000001    1.603197    0.000000
  Au     1.280549   -0.801600    0.000000
  Au    -1.280548   -0.801598    0.000000

 Multiplicity           Mult            ....    2
 Number of Electrons    NEL             ....   57
 Basis Dimension        Dim             ....  177

ORBITAL ENERGIES
----------------
                 SPIN UP ORBITALS
  NO   OCC          E(Eh)            E(eV)
   0   1.0000      -4.387896      -119.4007
   1   1.0000      -4.387329      -119.3853
   2   1.0000      -4.362862      -118.7195
   3   1.0000      -2.515440       -68.4486
   4   1.0000      -2.506048       -68.1930
   5   1.0000      -2.505767       -68.1854
   6   1.0000      -2.503022       -68.1107
   7   1.0000      -2.502898       -68.1073
   8   1.0000      -2.502109       -68.0859
   9   1.0000      -2.482528       -67.5530
  10   1.0000      -2.478929       -67.4551
  11   1.0000      -2.475747       -67.3685
  12   1.0000      -0.456249       -12.4152
  13   1.0000      -0.435797       -11.8586
  14   1.0000      -0.420170       -11.4334
  15   1.0000      -0.411209       -11.1896
  16   1.0000      -0.397029       -10.8037
  17   1.0000      -0.394674       -10.7396
  18   1.0000      -0.381984       -10.3943
  19   1.0000      -0.360891        -9.8203
  20   1.0000      -0.354452        -9.6451
  21   1.0000      -0.354420        -9.6443
  22   1.0000      -0.350147        -9.5280
  23   1.0000      -0.347285        -9.4501
  24   1.0000      -0.345506        -9.4017
  25   1.0000      -0.343598        -9.3498
  26   1.0000      -0.321115        -8.7380
  27   1.0000      -0.318881        -8.6772
  28   1.0000      -0.197327        -5.3696
  29   0.0000      -0.096741        -2.6325
  30   0.0000      -0.011436        -0.3112
  31   0.0000       0.005134         0.1397
  32   0.0000       0.024289         0.6609
  33   0.0000       0.028045         0.7631

                 SPIN DOWN ORBITALS
  NO   OCC          E(Eh)            E(eV)
   0   1.0000      -4.387007      -119.3765
   1   1.0000      -4.386452      -119.3614
   2   1.0000      -4.358815      -118.6094
   3   1.0000      -2.515186       -68.4417
   4   1.0000      -2.504763       -68.1581
   5   1.0000      -2.504197       -68.1427
   6   1.0000      -2.502746       -68.1032
   7   1.0000      -2.502682       -68.1015
   8   1.0000      -2.501852       -68.0789
   9   1.0000      -2.478166       -67.4343
  10   1.0000      -2.476291       -67.3833
  11   1.0000      -2.473982       -67.3205
  12   1.0000      -0.453007       -12.3269
  13   1.0000      -0.433439       -11.7945
  14   1.0000      -0.419385       -11.4120
  15   1.0000      -0.403226       -10.9723
  16   1.0000      -0.392689       -10.6856
  17   1.0000      -0.392281       -10.6745
  18   1.0000      -0.379477       -10.3261
  19   1.0000      -0.360052        -9.7975
  20   1.0000      -0.355021        -9.6606
  21   1.0000      -0.352851        -9.6016
  22   1.0000      -0.344700        -9.3798
  23   1.0000      -0.341198        -9.2845
  24   1.0000      -0.339007        -9.2248
  25   1.0000      -0.336660        -9.1610
  26   1.0000      -0.309685        -8.4270
  27   1.0000      -0.307569        -8.3694
  28   0.0000      -0.089736        -2.4418
  29   0.0000      -0.070389        -1.9154
  30   0.0000      -0.006603        -0.1797
  31   0.0000       0.017844         0.4856
  32   0.0000       0.036626         0.9966

Dispersion correction            ... done

MULLIKEN ATOMIC CHARGES AND SPIN DENSITIES
------------------------------------------
   0 Au:   -0.123197    0.660108
   1 Au:    0.061599    0.169949
   2 Au:    0.061598    0.169943
Sum of atomic charges       :   -0.0000000

LOEWDIN ATOMIC CHARGES AND SPIN DENSITIES
-----------------------------------------
   0 Au:   -0.082525    0.544987
   1 Au:    0.041262    0.227508
   2 Au:    0.041263    0.227505

  Mayer bond orders larger than 0.100000
B(  0-Au,  1-Au) :   0.4806 B(  0-Au,  2-Au) :   0.4806 B(  1-Au,  2-Au) :   0.7995

MP2 TOTAL ENERGY:     -406.823556208 Eh
Dispersion correction           -0.006598810
FINAL SINGLE POINT ENERGY      -406.830155018088

DIPOLE MOMENT
-------------
                                X             Y             Z
Electronic contribution:     -0.00000      -0.53701       0.00000
Nuclear contribution   :      0.00000      -0.00000       0.00000
                        -----------------------------------------
Total Dipole Moment    :     -0.00000      -0.53701       0.00000
                        -----------------------------------------
Magnitude (a.u.)       :      0.53701
Magnitude (Debye)      :      1.36496

VIBRATIONAL FREQUENCIES
-----------------------

Scaling factor for frequencies =  1.000000000 (already applied!)

   0:         0.00 cm**-1
   1:         0.00 cm**-1
   2:         0.00 cm**-1
   3:         0.00 cm**-1
   4:         0.00 cm**-1
   5:         0.00 cm**-1
   6:       -49.43 cm**-1 ***imaginary mode***
   7:       106.87 cm**-1
   8:       172.10 cm**-1

IR SPECTRUM
-----------

 Mode    freq (cm**-1)   T**2         TX         TY         TZ
-------------------------------------------------------------------
   7:       106.87    0.101949  ( -0.000075  -0.319294  -0.000002)
   8:       172.10    0.054125  ( -0.000106  -0.232648  -0.000005)

--------------------------
THERMOCHEMISTRY AT 298.15K
--------------------------

Temperature         ... 298.15 K
Pressure            ... 1.00 atm
Total Mass          ... 590.90 AMU

Throughout the following assumptions are being made:
  (1) The electronic state is orbitally nondegenerate
      but the spin degeneracy is treated
  (2) There are no thermally accessible electronically excited states
  (3) Hindered rotations indicated by low frequency modes are not
      treated as such but are treated as vibrations and this may
      cause some error
  (4) All equations used are the standard statistical mechanics
      equations for an ideal gas
  (5) All vibrations are strictly harmonic

freq.     106.87  E(vib)   ...       0.45
freq.     172.10  E(vib)   ...       0.38

------------
INNER ENERGY
------------

The inner energy is: U= E(el) + E(ZPE) + E(vib) + E(rot) + E(trans)
    E(el)   - is the total energy from the electronic structure calculation
              = E(kin-el) + E(nuc-el) + E(el-el) + E(nuc-nuc)
    E(ZPE)  - the the zero temperature vibrational energy from the frequency calculation
    E(vib)  - the the finite temperature correction to E(ZPE) due to population
              of excited vibrational states
    E(rot)  - is the rotational thermal energy
    E(trans)- is the translational thermal energy

Summary of contributions to the inner energy U:
Electronic energy                ...   -406.83015460 Eh
Zero point energy                ...      0.00063555 Eh       0.40 kcal/mol
Thermal vibrational correction   ...      0.00132736 Eh       0.83 kcal/mol
Thermal rotational correction    ...      0.00141627 Eh       0.89 kcal/mol
Thermal translational correction ...      0.00141627 Eh       0.89 kcal/mol
-----------------------------------------------------------------------
Total thermal energy                   -406.82535915 Eh

Summary of corrections to the electronic energy:
(perhaps to be used in another calculation)
Total thermal correction                  0.00415990 Eh       2.61 kcal/mol
Non-thermal (ZPE) correction              0.00063555 Eh       0.40 kcal/mol
-----------------------------------------------------------------------
Total correction                          0.00479545 Eh       3.01 kcal/mol

--------
ENTHALPY
--------

The enthalpy is H = U + kB*T
                kB is Boltzmann's constant
Total free energy                 ...   -406.82535915 Eh
Thermal Enthalpy correction       ...      0.00094421 Eh       0.59 kcal/mol
-----------------------------------------------------------------------
Total Enthalpy                    ...   -406.82441494 Eh

Note: Rotational entropy computed according to Herzberg
Infrared and Raman Spectra, Chapter V,1, Van Nostrand Reinhold, 1945
Point Group:  Cs, Symmetry Number:   1
Rotational constants in cm-1:     0.026097     0.022199     0.011995

Vibrational entropy computed according to the QRRHO of S. Grimme
Chem.Eur.J. 2012 18 9955

-------
ENTROPY
-------

The entropy contributions are T*S = T*(S(el)+S(vib)+S(rot)+S(trans))
     S(el)   - electronic entropy
     S(vib)  - vibrational entropy
     S(rot)  - rotational entropy
     S(trans)- translational entropy
The entropies will be listed as mutliplied by the temperature to get
units of energy

Electronic entropy                ...      0.00065446 Eh      0.41 kcal/mol
Vibrational entropy               ...      0.00261087 Eh      1.64 kcal/mol
Rotational entropy                ...      0.01511777 Eh      9.49 kcal/mol
Translational entropy             ...      0.02138721 Eh     13.42 kcal/mol
-----------------------------------------------------------------------
Final entropy term                ...      0.03977032 Eh     24.96 kcal/mol

In case the symmetry of your molecule has not been determined correctly
or in case you have a reason to use a different symmetry number we print
out the resulting rotational entropy values for sn=1,12 :
 --------------------------------------------------------
|  sn= 1 | S(rot)=       0.01511777 Eh      9.49 kcal/mol|
|  sn= 2 | S(rot)=       0.01446332 Eh      9.08 kcal/mol|
|  sn= 3 | S(rot)=       0.01408049 Eh      8.84 kcal/mol|
|  sn= 4 | S(rot)=       0.01380886 Eh      8.67 kcal/mol|
|  sn= 5 | S(rot)=       0.01359817 Eh      8.53 kcal/mol|
|  sn= 6 | S(rot)=       0.01342603 Eh      8.42 kcal/mol|
|  sn= 7 | S(rot)=       0.01328048 Eh      8.33 kcal/mol|
|  sn= 8 | S(rot)=       0.01315441 Eh      8.25 kcal/mol|
|  sn= 9 | S(rot)=       0.01304320 Eh      8.18 kcal/mol|
|  sn=10 | S(rot)=       0.01294372 Eh      8.12 kcal/mol|
|  sn=11 | S(rot)=       0.01285373 Eh      8.07 kcal/mol|
|  sn=12 | S(rot)=       0.01277157 Eh      8.01 kcal/mol|
 --------------------------------------------------------

-------------------
GIBBS FREE ENERGY
-------------------

The Gibbs free energy is G = H - T*S

Total enthalpy                    ...   -406.82441494 Eh
Total entropy correction          ...     -0.03977032 Eh    -24.96 kcal/mol
-----------------------------------------------------------------------
Final Gibbs free energy         ...   -406.86418526 Eh

For completeness - the Gibbs free energy minus the electronic energy
G-E(el)                           ...     -0.03403066 Eh    -21.35 kcal/mol

                             ****ORCA TERMINATED NORMALLY****
TOTAL RUN TIME: 0 days 0 hours 9 minutes 18 seconds 701 msec
