                         Program Version 4.2.0 -  RELEASE  -
|  1> #
|  2> # Au03N0_LIN ri-B2PLYP-D3BJ/Def2-TZVPPD
|  3> #
|  4> ! rijk ri-b2plyp d3bj def2-tzvppd def2/jk def2-tzvppd/c grid4 nofinalgrid opt xyzfile numfreq
|  5>
|  6> *xyz 0 2
|  7> Au       0.000000    0.000000    0.000000
|  8> Au       0.000000    0.000000    2.547414
|  9> Au       0.000000    0.000000   -2.547414
| 10> *
| 11>
| 12> %maxcore 5000
| 13>
| 14> %pal
| 15> nprocs = 24
| 16> end
| 17>
| 18>
| 19>                          ****END OF INPUT****
 Total Charge           Charge          ....    0
 Multiplicity           Mult            ....    2
 Number of Electrons    NEL             ....   57
Dispersion correction            ... done
MP2 TOTAL ENERGY:     -406.821477944 Eh
Dispersion correction           -0.004943690
FINAL SINGLE POINT ENERGY      -406.826421634392
Dispersion correction            ... done
MP2 TOTAL ENERGY:     -406.819558924 Eh
Dispersion correction           -0.004799298
FINAL SINGLE POINT ENERGY      -406.824358221908
FINAL SINGLE POINT ENERGY      -406.826582467789
FINAL SINGLE POINT ENERGY      -406.826611622865
Dispersion correction            ... done
MP2 TOTAL ENERGY:     -406.821701751 Eh
Dispersion correction           -0.004911084
FINAL SINGLE POINT ENERGY      -406.826612834573
                    ***********************HURRAY********************

CARTESIAN COORDINATES (ANGSTROEM)
---------------------------------
  Au     0.000000    0.000000   -0.000004
  Au    -0.000000   -0.000000    2.571370
  Au    -0.000000   -0.000000   -2.571365

 Multiplicity           Mult            ....    2
 Number of Electrons    NEL             ....   57
 Basis Dimension        Dim             ....  177

ORBITAL ENERGIES
----------------
                 SPIN UP ORBITALS
  NO   OCC          E(Eh)            E(eV)
   0   1.0000      -4.377910      -119.1290
   1   1.0000      -4.377902      -119.1288
   2   1.0000      -4.362240      -118.7026
   3   1.0000      -2.502498       -68.0964
   4   1.0000      -2.499021       -68.0018
   5   1.0000      -2.493826       -67.8604
   6   1.0000      -2.493826       -67.8604
   7   1.0000      -2.493810       -67.8600
   8   1.0000      -2.493810       -67.8600
   9   1.0000      -2.482584       -67.5546
  10   1.0000      -2.476283       -67.3831
  11   1.0000      -2.476283       -67.3831
  12   1.0000      -0.452666       -12.3177
  13   1.0000      -0.411631       -11.2011
  14   1.0000      -0.411631       -11.2011
  15   1.0000      -0.381844       -10.3905
  16   1.0000      -0.381089       -10.3700
  17   1.0000      -0.381089       -10.3700
  18   1.0000      -0.374961       -10.2032
  19   1.0000      -0.374955       -10.2030
  20   1.0000      -0.372497       -10.1362
  21   1.0000      -0.372491       -10.1360
  22   1.0000      -0.347041        -9.4435
  23   1.0000      -0.347032        -9.4432
  24   1.0000      -0.325594        -8.8599
  25   1.0000      -0.325594        -8.8599
  26   1.0000      -0.321422        -8.7463
  27   1.0000      -0.296185        -8.0596
  28   1.0000      -0.262074        -7.1314
  29   0.0000      -0.062208        -1.6928
  30   0.0000      -0.005028        -0.1368
  31   0.0000      -0.005028        -0.1368
  32   0.0000       0.019337         0.5262
  33   0.0000       0.032131         0.8743

                 SPIN DOWN ORBITALS
  NO   OCC          E(Eh)            E(eV)
   0   1.0000      -4.376353      -119.0866
   1   1.0000      -4.376342      -119.0863
   2   1.0000      -4.363294      -118.7313
   3   1.0000      -2.503149       -68.1141
   4   1.0000      -2.499795       -68.0229
   5   1.0000      -2.493770       -67.8589
   6   1.0000      -2.493770       -67.8589
   7   1.0000      -2.493725       -67.8577
   8   1.0000      -2.493725       -67.8577
   9   1.0000      -2.483708       -67.5851
  10   1.0000      -2.477435       -67.4144
  11   1.0000      -2.477435       -67.4144
  12   1.0000      -0.448770       -12.2116
  13   1.0000      -0.407993       -11.1021
  14   1.0000      -0.407993       -11.1021
  15   1.0000      -0.379812       -10.3352
  16   1.0000      -0.375910       -10.2290
  17   1.0000      -0.375910       -10.2290
  18   1.0000      -0.369575       -10.0567
  19   1.0000      -0.369569       -10.0565
  20   1.0000      -0.366371        -9.9695
  21   1.0000      -0.366365        -9.9693
  22   1.0000      -0.347412        -9.4536
  23   1.0000      -0.347404        -9.4533
  24   1.0000      -0.325309        -8.8521
  25   1.0000      -0.325309        -8.8521
  26   1.0000      -0.313399        -8.5280
  27   1.0000      -0.269337        -7.3290
  28   0.0000      -0.138773        -3.7762
  29   0.0000      -0.043896        -1.1945
  30   0.0000       0.002514         0.0684
  31   0.0000       0.002514         0.0684
  32   0.0000       0.030441         0.8283

Dispersion correction            ... done

MULLIKEN ATOMIC CHARGES AND SPIN DENSITIES
------------------------------------------
   0 Au:   -0.104141   -0.020747
   1 Au:    0.052073    0.510378
   2 Au:    0.052068    0.510369
Sum of atomic charges       :   -0.0000000

LOEWDIN ATOMIC CHARGES AND SPIN DENSITIES
-----------------------------------------
   0 Au:   -0.177359    0.277473
   1 Au:    0.088680    0.361267
   2 Au:    0.088679    0.361260

  Mayer bond orders larger than 0.100000
B(  0-Au,  1-Au) :   0.6520 B(  0-Au,  2-Au) :   0.6520 B(  1-Au,  2-Au) :   0.2225

MP2 TOTAL ENERGY:     -406.821701649 Eh
Dispersion correction           -0.004911153
FINAL SINGLE POINT ENERGY      -406.826612802282

DIPOLE MOMENT
-------------
                                X             Y             Z
Electronic contribution:     -0.00000      -0.00000       0.00001
Nuclear contribution   :      0.00000       0.00000      -0.00000
                        -----------------------------------------
Total Dipole Moment    :     -0.00000      -0.00000       0.00001
                        -----------------------------------------
Magnitude (a.u.)       :      0.00001
Magnitude (Debye)      :      0.00002

VIBRATIONAL FREQUENCIES
-----------------------

Scaling factor for frequencies =  1.000000000 (already applied!)

   0:         0.00 cm**-1
   1:         0.00 cm**-1
   2:         0.00 cm**-1
   3:         0.00 cm**-1
   4:         0.00 cm**-1
   5:         0.00 cm**-1
   6:       -14.43 cm**-1 ***imaginary mode***
   7:       111.50 cm**-1
   8:       171.26 cm**-1

IR SPECTRUM
-----------

 Mode    freq (cm**-1)   T**2         TX         TY         TZ
-------------------------------------------------------------------
   7:       111.50    0.000000  ( -0.000008  -0.000000  -0.000080)
   8:       171.26    5.974518  (  0.000001   0.000001  -2.444283)

--------------------------
THERMOCHEMISTRY AT 298.15K
--------------------------

Temperature         ... 298.15 K
Pressure            ... 1.00 atm
Total Mass          ... 590.90 AMU
The molecule is recognized as being linear

Throughout the following assumptions are being made:
  (1) The electronic state is orbitally nondegenerate
      but the spin degeneracy is treated
  (2) There are no thermally accessible electronically excited states
  (3) Hindered rotations indicated by low frequency modes are not
      treated as such but are treated as vibrations and this may
      cause some error
  (4) All equations used are the standard statistical mechanics
      equations for an ideal gas
  (5) All vibrations are strictly harmonic

freq.     111.50  E(vib)   ...       0.45
freq.     171.26  E(vib)   ...       0.38

------------
INNER ENERGY
------------

The inner energy is: U= E(el) + E(ZPE) + E(vib) + E(rot) + E(trans)
    E(el)   - is the total energy from the electronic structure calculation
              = E(kin-el) + E(nuc-el) + E(el-el) + E(nuc-nuc)
    E(ZPE)  - the the zero temperature vibrational energy from the frequency calculation
    E(vib)  - the the finite temperature correction to E(ZPE) due to population
              of excited vibrational states
    E(rot)  - is the rotational thermal energy
    E(trans)- is the translational thermal energy

Summary of contributions to the inner energy U:
Electronic energy                ...   -406.82661276 Eh
Zero point energy                ...      0.00064417 Eh       0.40 kcal/mol
Thermal vibrational correction   ...      0.00132005 Eh       0.83 kcal/mol
Thermal rotational correction    ...      0.00094418 Eh       0.59 kcal/mol
Thermal translational correction ...      0.00141627 Eh       0.89 kcal/mol
-----------------------------------------------------------------------
Total thermal energy                   -406.82228808 Eh

Summary of corrections to the electronic energy:
(perhaps to be used in another calculation)
Total thermal correction                  0.00368051 Eh       2.31 kcal/mol
Non-thermal (ZPE) correction              0.00064417 Eh       0.40 kcal/mol
-----------------------------------------------------------------------
Total correction                          0.00432468 Eh       2.71 kcal/mol

--------
ENTHALPY
--------

The enthalpy is H = U + kB*T
                kB is Boltzmann's constant
Total free energy                 ...   -406.82228808 Eh
Thermal Enthalpy correction       ...      0.00094421 Eh       0.59 kcal/mol
-----------------------------------------------------------------------
Total Enthalpy                    ...   -406.82134387 Eh

Note: Rotational entropy computed according to Herzberg
Infrared and Raman Spectra, Chapter V,1, Van Nostrand Reinhold, 1945
Point Group:  Cinfv, Symmetry Number:   1
Rotational constants in cm-1:     0.000000     0.006472     0.006472

Vibrational entropy computed according to the QRRHO of S. Grimme
Chem.Eur.J. 2012 18 9955

-------
ENTROPY
-------

The entropy contributions are T*S = T*(S(el)+S(vib)+S(rot)+S(trans))
     S(el)   - electronic entropy
     S(vib)  - vibrational entropy
     S(rot)  - rotational entropy
     S(trans)- translational entropy
The entropies will be listed as mutliplied by the temperature to get
units of energy

Electronic entropy                ...      0.00065446 Eh      0.41 kcal/mol
Vibrational entropy               ...      0.00259380 Eh      1.63 kcal/mol
Rotational entropy                ...      0.01073917 Eh      6.74 kcal/mol
Translational entropy             ...      0.02138721 Eh     13.42 kcal/mol
-----------------------------------------------------------------------
Final entropy term                ...      0.03537464 Eh     22.20 kcal/mol

In case the symmetry of your molecule has not been determined correctly
or in case you have a reason to use a different symmetry number we print
out the resulting rotational entropy values for sn=1,12 :
 --------------------------------------------------------
|  sn= 1 | S(rot)=       0.00056870 Eh      0.36 kcal/mol|
|  sn= 2 | S(rot)=      -0.00008575 Eh     -0.05 kcal/mol|
|  sn= 3 | S(rot)=      -0.00046858 Eh     -0.29 kcal/mol|
|  sn= 4 | S(rot)=      -0.00074021 Eh     -0.46 kcal/mol|
|  sn= 5 | S(rot)=      -0.00095090 Eh     -0.60 kcal/mol|
|  sn= 6 | S(rot)=      -0.00112304 Eh     -0.70 kcal/mol|
|  sn= 7 | S(rot)=      -0.00126859 Eh     -0.80 kcal/mol|
|  sn= 8 | S(rot)=      -0.00139466 Eh     -0.88 kcal/mol|
|  sn= 9 | S(rot)=      -0.00150587 Eh     -0.94 kcal/mol|
|  sn=10 | S(rot)=      -0.00160535 Eh     -1.01 kcal/mol|
|  sn=11 | S(rot)=      -0.00169534 Eh     -1.06 kcal/mol|
|  sn=12 | S(rot)=      -0.00177750 Eh     -1.12 kcal/mol|
 --------------------------------------------------------

-------------------
GIBBS FREE ENERGY
-------------------

The Gibbs free energy is G = H - T*S

Total enthalpy                    ...   -406.82134387 Eh
Total entropy correction          ...     -0.03537464 Eh    -22.20 kcal/mol
-----------------------------------------------------------------------
Final Gibbs free energy         ...   -406.85671851 Eh

For completeness - the Gibbs free energy minus the electronic energy
G-E(el)                           ...     -0.03010575 Eh    -18.89 kcal/mol

                             ****ORCA TERMINATED NORMALLY****
TOTAL RUN TIME: 0 days 0 hours 7 minutes 26 seconds 522 msec
