                         Program Version 4.2.0 -  RELEASE  -
|  1> #
|  2> # Au03C1_D3H ri-B2PLYP-D3BJ/Def2-TZVPPD
|  3> #
|  4> ! rijk ri-b2plyp d3bj def2-tzvppd def2/jk def2-tzvppd/c grid4 nofinalgrid opt xyzfile numfreq
|  5>
|  6> *xyz 1 1
|  7> Au       0.000000    1.501400   -0.000000
|  8> Au       1.300251   -0.750700   -0.000000
|  9> Au      -1.300251   -0.750700   -0.000000
| 10> *
| 11>
| 12> %maxcore 5000
| 13>
| 14> %pal
| 15> nprocs = 24
| 16> end
| 17>
| 18>
| 19>                          ****END OF INPUT****
 Total Charge           Charge          ....    1
 Multiplicity           Mult            ....    1
 Number of Electrons    NEL             ....   56
Dispersion correction            ... done
MP2 TOTAL ENERGY:     -406.572230376 Eh
Dispersion correction           -0.006638617
FINAL SINGLE POINT ENERGY      -406.578868993829
Dispersion correction            ... done
MP2 TOTAL ENERGY:     -406.571046046 Eh
Dispersion correction           -0.006589448
FINAL SINGLE POINT ENERGY      -406.577635494667
FINAL SINGLE POINT ENERGY      -406.579161406049
FINAL SINGLE POINT ENERGY      -406.579178999682
Dispersion correction            ... done
MP2 TOTAL ENERGY:     -406.572554497 Eh
Dispersion correction           -0.006625073
FINAL SINGLE POINT ENERGY      -406.579179569860
                    ***********************HURRAY********************

CARTESIAN COORDINATES (ANGSTROEM)
---------------------------------
  Au     0.000000    1.517076    0.000000
  Au     1.313732   -0.758538    0.000000
  Au    -1.313732   -0.758538    0.000000

 Multiplicity           Mult            ....    1
 Number of Electrons    NEL             ....   56
 Basis Dimension        Dim             ....  177

ORBITAL ENERGIES
----------------

  NO   OCC          E(Eh)            E(eV)
   0   2.0000      -4.577778      -124.5677
   1   2.0000      -4.577195      -124.5518
   2   2.0000      -4.577194      -124.5518
   3   2.0000      -2.707048       -73.6625
   4   2.0000      -2.700344       -73.4801
   5   2.0000      -2.700343       -73.4801
   6   2.0000      -2.694343       -73.3168
   7   2.0000      -2.694336       -73.3166
   8   2.0000      -2.693481       -73.2933
   9   2.0000      -2.693222       -73.2863
  10   2.0000      -2.692206       -73.2587
  11   2.0000      -2.692204       -73.2586
  12   2.0000      -0.655342       -17.8328
  13   2.0000      -0.623256       -16.9597
  14   2.0000      -0.623244       -16.9593
  15   2.0000      -0.616095       -16.7648
  16   2.0000      -0.592074       -16.1112
  17   2.0000      -0.586099       -15.9486
  18   2.0000      -0.586089       -15.9483
  19   2.0000      -0.554666       -15.0932
  20   2.0000      -0.554660       -15.0931
  21   2.0000      -0.548203       -14.9174
  22   2.0000      -0.545897       -14.8546
  23   2.0000      -0.545896       -14.8546
  24   2.0000      -0.545333       -14.8393
  25   2.0000      -0.545330       -14.8392
  26   2.0000      -0.511112       -13.9081
  27   2.0000      -0.503242       -13.6939
  28   0.0000      -0.261789        -7.1236
  29   0.0000      -0.261782        -7.1234
  30   0.0000      -0.169864        -4.6222
  31   0.0000      -0.138774        -3.7762
  32   0.0000      -0.123819        -3.3693

Dispersion correction            ... done

MULLIKEN ATOMIC CHARGES
-----------------------
   0 Au:    0.333331
   1 Au:    0.333334
   2 Au:    0.333335
Sum of atomic charges:    1.0000000

LOEWDIN ATOMIC CHARGES
----------------------
   0 Au:    0.333334
   1 Au:    0.333333
   2 Au:    0.333333

  Mayer bond orders larger than 0.100000
B(  0-Au,  1-Au) :   0.5992 B(  0-Au,  2-Au) :   0.5992 B(  1-Au,  2-Au) :   0.5993

MP2 TOTAL ENERGY:     -406.572554331 Eh
Dispersion correction           -0.006625083
FINAL SINGLE POINT ENERGY      -406.579179413453

DIPOLE MOMENT
-------------
                                X             Y             Z
Electronic contribution:     -0.00000       0.00003       0.00000
Nuclear contribution   :     -0.00000      -0.00000       0.00000
                        -----------------------------------------
Total Dipole Moment    :     -0.00000       0.00003       0.00000
                        -----------------------------------------
Magnitude (a.u.)       :      0.00003
Magnitude (Debye)      :      0.00007

VIBRATIONAL FREQUENCIES
-----------------------

Scaling factor for frequencies =  1.000000000 (already applied!)

   0:         0.00 cm**-1
   1:         0.00 cm**-1
   2:         0.00 cm**-1
   3:         0.00 cm**-1
   4:         0.00 cm**-1
   5:         0.00 cm**-1
   6:       112.39 cm**-1
   7:       112.83 cm**-1
   8:       175.44 cm**-1

IR SPECTRUM
-----------

 Mode    freq (cm**-1)   T**2         TX         TY         TZ
-------------------------------------------------------------------
   6:       112.39    0.477764  (  0.001107   0.691204  -0.000000)
   7:       112.83    0.388480  ( -0.623280   0.001215   0.000001)
   8:       175.44    0.000000  (  0.000002   0.000051  -0.000002)

--------------------------
THERMOCHEMISTRY AT 298.15K
--------------------------

Temperature         ... 298.15 K
Pressure            ... 1.00 atm
Total Mass          ... 590.90 AMU

Throughout the following assumptions are being made:
  (1) The electronic state is orbitally nondegenerate
  (2) There are no thermally accessible electronically excited states
  (3) Hindered rotations indicated by low frequency modes are not
      treated as such but are treated as vibrations and this may
      cause some error
  (4) All equations used are the standard statistical mechanics
      equations for an ideal gas
  (5) All vibrations are strictly harmonic

freq.     112.39  E(vib)   ...       0.45
freq.     112.83  E(vib)   ...       0.45
freq.     175.44  E(vib)   ...       0.38

------------
INNER ENERGY
------------

The inner energy is: U= E(el) + E(ZPE) + E(vib) + E(rot) + E(trans)
    E(el)   - is the total energy from the electronic structure calculation
              = E(kin-el) + E(nuc-el) + E(el-el) + E(nuc-nuc)
    E(ZPE)  - the the zero temperature vibrational energy from the frequency calculation
    E(vib)  - the the finite temperature correction to E(ZPE) due to population
              of excited vibrational states
    E(rot)  - is the rotational thermal energy
    E(trans)- is the translational thermal energy

Summary of contributions to the inner energy U:
Electronic energy                ...   -406.57917941 Eh
Zero point energy                ...      0.00091277 Eh       0.57 kcal/mol
Thermal vibrational correction   ...      0.00202183 Eh       1.27 kcal/mol
Thermal rotational correction    ...      0.00141627 Eh       0.89 kcal/mol
Thermal translational correction ...      0.00141627 Eh       0.89 kcal/mol
-----------------------------------------------------------------------
Total thermal energy                   -406.57341226 Eh

Summary of corrections to the electronic energy:
(perhaps to be used in another calculation)
Total thermal correction                  0.00485438 Eh       3.05 kcal/mol
Non-thermal (ZPE) correction              0.00091277 Eh       0.57 kcal/mol
-----------------------------------------------------------------------
Total correction                          0.00576714 Eh       3.62 kcal/mol

--------
ENTHALPY
--------

The enthalpy is H = U + kB*T
                kB is Boltzmann's constant
Total free energy                 ...   -406.57341226 Eh
Thermal Enthalpy correction       ...      0.00094421 Eh       0.59 kcal/mol
-----------------------------------------------------------------------
Total Enthalpy                    ...   -406.57246805 Eh

Note: Rotational entropy computed according to Herzberg
Infrared and Raman Spectra, Chapter V,1, Van Nostrand Reinhold, 1945
Point Group:  C2v, Symmetry Number:   2
Rotational constants in cm-1:     0.024795     0.024791     0.012397

Vibrational entropy computed according to the QRRHO of S. Grimme
Chem.Eur.J. 2012 18 9955

-------
ENTROPY
-------

The entropy contributions are T*S = T*(S(el)+S(vib)+S(rot)+S(trans))
     S(el)   - electronic entropy
     S(vib)  - vibrational entropy
     S(rot)  - rotational entropy
     S(trans)- translational entropy
The entropies will be listed as mutliplied by the temperature to get
units of energy

Electronic entropy                ...      0.00000000 Eh      0.00 kcal/mol
Vibrational entropy               ...      0.00401147 Eh      2.52 kcal/mol
Rotational entropy                ...      0.01441981 Eh      9.05 kcal/mol
Translational entropy             ...      0.02138721 Eh     13.42 kcal/mol
-----------------------------------------------------------------------
Final entropy term                ...      0.03981849 Eh     24.99 kcal/mol

In case the symmetry of your molecule has not been determined correctly
or in case you have a reason to use a different symmetry number we print
out the resulting rotational entropy values for sn=1,12 :
 --------------------------------------------------------
|  sn= 1 | S(rot)=       0.01507427 Eh      9.46 kcal/mol|
|  sn= 2 | S(rot)=       0.01441981 Eh      9.05 kcal/mol|
|  sn= 3 | S(rot)=       0.01403698 Eh      8.81 kcal/mol|
|  sn= 4 | S(rot)=       0.01376535 Eh      8.64 kcal/mol|
|  sn= 5 | S(rot)=       0.01355467 Eh      8.51 kcal/mol|
|  sn= 6 | S(rot)=       0.01338252 Eh      8.40 kcal/mol|
|  sn= 7 | S(rot)=       0.01323697 Eh      8.31 kcal/mol|
|  sn= 8 | S(rot)=       0.01311090 Eh      8.23 kcal/mol|
|  sn= 9 | S(rot)=       0.01299969 Eh      8.16 kcal/mol|
|  sn=10 | S(rot)=       0.01290021 Eh      8.09 kcal/mol|
|  sn=11 | S(rot)=       0.01281022 Eh      8.04 kcal/mol|
|  sn=12 | S(rot)=       0.01272806 Eh      7.99 kcal/mol|
 --------------------------------------------------------

-------------------
GIBBS FREE ENERGY
-------------------

The Gibbs free energy is G = H - T*S

Total enthalpy                    ...   -406.57246805 Eh
Total entropy correction          ...     -0.03981849 Eh    -24.99 kcal/mol
-----------------------------------------------------------------------
Final Gibbs free energy         ...   -406.61228654 Eh

For completeness - the Gibbs free energy minus the electronic energy
G-E(el)                           ...     -0.03310714 Eh    -20.77 kcal/mol

                             ****ORCA TERMINATED NORMALLY****
TOTAL RUN TIME: 0 days 0 hours 6 minutes 55 seconds 477 msec
