                         Program Version 4.2.0 -  RELEASE  -
|  1> #
|  2> # Cu01N0_F ri-B2PLYP-D3BJ/Def2-TZVPPD
|  3> #
|  4> ! rijk ri-b2plyp d3bj def2-tzvppd def2/jk def2-tzvppd/c grid4 nofinalgrid opt xyzfile numfreq
|  5>
|  6> *xyz 0 1
|  7> Cu       0.000000    0.000000    0.412716
|  8> F        0.000000    0.000000   -1.329863
|  9> *
| 10>
| 11> %maxcore 5000
| 12>
| 13> %pal
| 14> nprocs = 24
| 15> end
| 16>
| 17>
| 18>                          ****END OF INPUT****
 Total Charge           Charge          ....    0
 Multiplicity           Mult            ....    1
 Number of Electrons    NEL             ....   38
Dispersion correction            ... done
MP2 TOTAL ENERGY:    -1740.189588188 Eh
Dispersion correction           -0.000357672
FINAL SINGLE POINT ENERGY     -1740.189945860758
Dispersion correction            ... done
MP2 TOTAL ENERGY:    -1740.189641707 Eh
Dispersion correction           -0.000357653
FINAL SINGLE POINT ENERGY     -1740.189999359998
FINAL SINGLE POINT ENERGY     -1740.190043227273
Dispersion correction            ... done
MP2 TOTAL ENERGY:    -1740.189670445 Eh
Dispersion correction           -0.000357544
FINAL SINGLE POINT ENERGY     -1740.190027988425
                    ***********************HURRAY********************

CARTESIAN COORDINATES (ANGSTROEM)
---------------------------------
  Cu     0.000000    0.000000    0.428134
  F      0.000000    0.000000   -1.345281

 Multiplicity           Mult            ....    1
 Number of Electrons    NEL             ....   38
 Basis Dimension        Dim             ....  107

ORBITAL ENERGIES
----------------

  NO   OCC          E(Eh)            E(eV)
   0   2.0000    -325.456462     -8856.1206
   1   2.0000     -39.665523     -1079.3538
   2   2.0000     -34.702158      -944.2937
   3   2.0000     -34.702158      -944.2937
   4   2.0000     -34.699313      -944.2163
   5   2.0000     -25.227807      -686.4835
   6   2.0000      -4.618918      -125.6871
   7   2.0000      -3.038661       -82.6862
   8   2.0000      -3.037038       -82.6420
   9   2.0000      -3.037038       -82.6420
  10   2.0000      -1.194143       -32.4943
  11   2.0000      -0.455720       -12.4008
  12   2.0000      -0.431156       -11.7324
  13   2.0000      -0.431156       -11.7324
  14   2.0000      -0.394667       -10.7394
  15   2.0000      -0.394667       -10.7394
  16   2.0000      -0.356646        -9.7048
  17   2.0000      -0.356646        -9.7048
  18   2.0000      -0.336673        -9.1613
  19   0.0000      -0.074205        -2.0192
  20   0.0000       0.021960         0.5976
  21   0.0000       0.021960         0.5976
  22   0.0000       0.057066         1.5528
  23   0.0000       0.100211         2.7269

Dispersion correction            ... done

MULLIKEN ATOMIC CHARGES
-----------------------
   0 Cu:    0.674214
   1 F :   -0.674214
Sum of atomic charges:   -0.0000000

LOEWDIN ATOMIC CHARGES
----------------------
   0 Cu:    0.558290
   1 F :   -0.558290

  Mayer bond orders larger than 0.100000
B(  0-Cu,  1-F ) :   0.6475

MP2 TOTAL ENERGY:    -1740.189668798 Eh
Dispersion correction           -0.000357543
FINAL SINGLE POINT ENERGY     -1740.190026341638

DIPOLE MOMENT
-------------
                                X             Y             Z
Electronic contribution:      0.00000       0.00000       2.94125
Nuclear contribution   :      0.00000       0.00000      -0.85288
                        -----------------------------------------
Total Dipole Moment    :      0.00000       0.00000       2.08837
                        -----------------------------------------
Magnitude (a.u.)       :      2.08837
Magnitude (Debye)      :      5.30821

VIBRATIONAL FREQUENCIES
-----------------------

Scaling factor for frequencies =  1.000000000 (already applied!)

   0:         0.00 cm**-1
   1:         0.00 cm**-1
   2:         0.00 cm**-1
   3:         0.00 cm**-1
   4:         0.00 cm**-1
   5:       579.97 cm**-1

IR SPECTRUM
-----------

 Mode    freq (cm**-1)   T**2         TX         TY         TZ
-------------------------------------------------------------------
   5:       579.97   57.200176  (  0.000001  -0.000001   7.563080)

--------------------------
THERMOCHEMISTRY AT 298.15K
--------------------------

Temperature         ... 298.15 K
Pressure            ... 1.00 atm
Total Mass          ... 82.55 AMU
The molecule is recognized as being linear

Throughout the following assumptions are being made:
  (1) The electronic state is orbitally nondegenerate
  (2) There are no thermally accessible electronically excited states
  (3) Hindered rotations indicated by low frequency modes are not
      treated as such but are treated as vibrations and this may
      cause some error
  (4) All equations used are the standard statistical mechanics
      equations for an ideal gas
  (5) All vibrations are strictly harmonic

freq.     579.97  E(vib)   ...       0.11

------------
INNER ENERGY
------------

The inner energy is: U= E(el) + E(ZPE) + E(vib) + E(rot) + E(trans)
    E(el)   - is the total energy from the electronic structure calculation
              = E(kin-el) + E(nuc-el) + E(el-el) + E(nuc-nuc)
    E(ZPE)  - the the zero temperature vibrational energy from the frequency calculation
    E(vib)  - the the finite temperature correction to E(ZPE) due to population
              of excited vibrational states
    E(rot)  - is the rotational thermal energy
    E(trans)- is the translational thermal energy

Summary of contributions to the inner energy U:
Electronic energy                ...  -1740.19002630 Eh
Zero point energy                ...      0.00132126 Eh       0.83 kcal/mol
Thermal vibrational correction   ...      0.00017134 Eh       0.11 kcal/mol
Thermal rotational correction    ...      0.00094418 Eh       0.59 kcal/mol
Thermal translational correction ...      0.00141627 Eh       0.89 kcal/mol
-----------------------------------------------------------------------
Total thermal energy                  -1740.18617325 Eh

Summary of corrections to the electronic energy:
(perhaps to be used in another calculation)
Total thermal correction                  0.00253179 Eh       1.59 kcal/mol
Non-thermal (ZPE) correction              0.00132126 Eh       0.83 kcal/mol
-----------------------------------------------------------------------
Total correction                          0.00385305 Eh       2.42 kcal/mol

--------
ENTHALPY
--------

The enthalpy is H = U + kB*T
                kB is Boltzmann's constant
Total free energy                 ...  -1740.18617325 Eh
Thermal Enthalpy correction       ...      0.00094421 Eh       0.59 kcal/mol
-----------------------------------------------------------------------
Total Enthalpy                    ...  -1740.18522904 Eh

Note: Rotational entropy computed according to Herzberg
Infrared and Raman Spectra, Chapter V,1, Van Nostrand Reinhold, 1945
Point Group:  Cinfv, Symmetry Number:   1
Rotational constants in cm-1:     0.000000     0.366488     0.366488

Vibrational entropy computed according to the QRRHO of S. Grimme
Chem.Eur.J. 2012 18 9955

-------
ENTROPY
-------

The entropy contributions are T*S = T*(S(el)+S(vib)+S(rot)+S(trans))
     S(el)   - electronic entropy
     S(vib)  - vibrational entropy
     S(rot)  - rotational entropy
     S(trans)- translational entropy
The entropies will be listed as mutliplied by the temperature to get
units of energy

Electronic entropy                ...      0.00000000 Eh      0.00 kcal/mol
Vibrational entropy               ...      0.00023092 Eh      0.14 kcal/mol
Rotational entropy                ...      0.00692802 Eh      4.35 kcal/mol
Translational entropy             ...      0.01859962 Eh     11.67 kcal/mol
-----------------------------------------------------------------------
Final entropy term                ...      0.02575855 Eh     16.16 kcal/mol

In case the symmetry of your molecule has not been determined correctly
or in case you have a reason to use a different symmetry number we print
out the resulting rotational entropy values for sn=1,12 :
 --------------------------------------------------------
|  sn= 1 | S(rot)=             -inf Eh      -inf kcal/mol|
|  sn= 2 | S(rot)=             -inf Eh      -inf kcal/mol|
|  sn= 3 | S(rot)=             -inf Eh      -inf kcal/mol|
|  sn= 4 | S(rot)=             -inf Eh      -inf kcal/mol|
|  sn= 5 | S(rot)=             -inf Eh      -inf kcal/mol|
|  sn= 6 | S(rot)=             -inf Eh      -inf kcal/mol|
|  sn= 7 | S(rot)=             -inf Eh      -inf kcal/mol|
|  sn= 8 | S(rot)=             -inf Eh      -inf kcal/mol|
|  sn= 9 | S(rot)=             -inf Eh      -inf kcal/mol|
|  sn=10 | S(rot)=             -inf Eh      -inf kcal/mol|
|  sn=11 | S(rot)=             -inf Eh      -inf kcal/mol|
|  sn=12 | S(rot)=             -inf Eh      -inf kcal/mol|
 --------------------------------------------------------

-------------------
GIBBS FREE ENERGY
-------------------

The Gibbs free energy is G = H - T*S

Total enthalpy                    ...  -1740.18522904 Eh
Total entropy correction          ...     -0.02575855 Eh    -16.16 kcal/mol
-----------------------------------------------------------------------
Final Gibbs free energy         ...  -1740.21098759 Eh

For completeness - the Gibbs free energy minus the electronic energy
G-E(el)                           ...     -0.02096129 Eh    -13.15 kcal/mol

                             ****ORCA TERMINATED NORMALLY****
TOTAL RUN TIME: 0 days 0 hours 1 minutes 42 seconds 103 msec
