                         Program Version 4.2.0 -  RELEASE  -
|  1> #
|  2> # Cu01N0_H ri-B2PLYP-D3BJ/Def2-TZVPPD
|  3> #
|  4> ! rijk ri-b2plyp d3bj def2-tzvppd def2/jk def2-tzvppd/c grid4 nofinalgrid opt xyzfile numfreq
|  5>
|  6> *xyz 0 1
|  7> Cu       0.000000    0.000000    0.048513
|  8> H        0.000000    0.000000   -1.406870
|  9> *
| 10>
| 11> %maxcore 5000
| 12>
| 13> %pal
| 14> nprocs = 24
| 15> end
| 16>
| 17>
| 18>                          ****END OF INPUT****
 Total Charge           Charge          ....    0
 Multiplicity           Mult            ....    1
 Number of Electrons    NEL             ....   30
Dispersion correction            ... done
MP2 TOTAL ENERGY:    -1640.915022966 Eh
Dispersion correction           -0.000295176
FINAL SINGLE POINT ENERGY     -1640.915318142069
Dispersion correction            ... done
MP2 TOTAL ENERGY:    -1640.915051621 Eh
Dispersion correction           -0.000295261
FINAL SINGLE POINT ENERGY     -1640.915346881928
FINAL SINGLE POINT ENERGY     -1640.915200377193
Dispersion correction            ... done
MP2 TOTAL ENERGY:    -1640.914877934 Eh
Dispersion correction           -0.000295935
FINAL SINGLE POINT ENERGY     -1640.915173868447
                    ***********************HURRAY********************

CARTESIAN COORDINATES (ANGSTROEM)
---------------------------------
  Cu     0.000000    0.000000    0.068458
  H      0.000000    0.000000   -1.426815

 Multiplicity           Mult            ....    1
 Number of Electrons    NEL             ....   30
 Basis Dimension        Dim             ....   84

ORBITAL ENERGIES
----------------

  NO   OCC          E(Eh)            E(eV)
   0   2.0000    -325.438408     -8855.6293
   1   2.0000     -39.650537     -1078.9460
   2   2.0000     -34.685895      -943.8512
   3   2.0000     -34.685497      -943.8404
   4   2.0000     -34.685497      -943.8404
   5   2.0000      -4.598384      -125.1284
   6   2.0000      -3.019156       -82.1554
   7   2.0000      -3.013564       -82.0032
   8   2.0000      -3.013564       -82.0032
   9   2.0000      -0.399262       -10.8645
  10   2.0000      -0.373987       -10.1767
  11   2.0000      -0.373987       -10.1767
  12   2.0000      -0.369385       -10.0515
  13   2.0000      -0.369384       -10.0515
  14   2.0000      -0.282908        -7.6983
  15   0.0000      -0.040591        -1.1045
  16   0.0000       0.020101         0.5470
  17   0.0000       0.020101         0.5470
  18   0.0000       0.087177         2.3722
  19   0.0000       0.101577         2.7641

Dispersion correction            ... done

MULLIKEN ATOMIC CHARGES
-----------------------
   0 Cu:   -0.234562
   1 H :    0.234562
Sum of atomic charges:   -0.0000000

LOEWDIN ATOMIC CHARGES
----------------------
   0 Cu:    0.242098
   1 H :   -0.242098

  Mayer bond orders larger than 0.100000
B(  0-Cu,  1-H ) :   0.9023

MP2 TOTAL ENERGY:    -1640.914876385 Eh
Dispersion correction           -0.000295938
FINAL SINGLE POINT ENERGY     -1640.915172322834

DIPOLE MOMENT
-------------
                                X             Y             Z
Electronic contribution:      0.00000       0.00000       2.61419
Nuclear contribution   :      0.00000       0.00000      -1.50207
                        -----------------------------------------
Total Dipole Moment    :      0.00000       0.00000       1.11211
                        -----------------------------------------
Magnitude (a.u.)       :      1.11211
Magnitude (Debye)      :      2.82676

VIBRATIONAL FREQUENCIES
-----------------------

Scaling factor for frequencies =  1.000000000 (already applied!)

   0:         0.00 cm**-1
   1:         0.00 cm**-1
   2:         0.00 cm**-1
   3:         0.00 cm**-1
   4:         0.00 cm**-1
   5:      1879.36 cm**-1

IR SPECTRUM
-----------

 Mode    freq (cm**-1)   T**2         TX         TY         TZ
-------------------------------------------------------------------
   5:      1879.36   72.758909  (  0.000010  -0.000004   8.529883)

--------------------------
THERMOCHEMISTRY AT 298.15K
--------------------------

Temperature         ... 298.15 K
Pressure            ... 1.00 atm
Total Mass          ... 64.56 AMU
The molecule is recognized as being linear

Throughout the following assumptions are being made:
  (1) The electronic state is orbitally nondegenerate
  (2) There are no thermally accessible electronically excited states
  (3) Hindered rotations indicated by low frequency modes are not
      treated as such but are treated as vibrations and this may
      cause some error
  (4) All equations used are the standard statistical mechanics
      equations for an ideal gas
  (5) All vibrations are strictly harmonic

freq.    1879.36  E(vib)   ...       0.00

------------
INNER ENERGY
------------

The inner energy is: U= E(el) + E(ZPE) + E(vib) + E(rot) + E(trans)
    E(el)   - is the total energy from the electronic structure calculation
              = E(kin-el) + E(nuc-el) + E(el-el) + E(nuc-nuc)
    E(ZPE)  - the the zero temperature vibrational energy from the frequency calculation
    E(vib)  - the the finite temperature correction to E(ZPE) due to population
              of excited vibrational states
    E(rot)  - is the rotational thermal energy
    E(trans)- is the translational thermal energy

Summary of contributions to the inner energy U:
Electronic energy                ...  -1640.91517244 Eh
Zero point energy                ...      0.00428150 Eh       2.69 kcal/mol
Thermal vibrational correction   ...      0.00000099 Eh       0.00 kcal/mol
Thermal rotational correction    ...      0.00094418 Eh       0.59 kcal/mol
Thermal translational correction ...      0.00141627 Eh       0.89 kcal/mol
-----------------------------------------------------------------------
Total thermal energy                  -1640.90852950 Eh

Summary of corrections to the electronic energy:
(perhaps to be used in another calculation)
Total thermal correction                  0.00236144 Eh       1.48 kcal/mol
Non-thermal (ZPE) correction              0.00428150 Eh       2.69 kcal/mol
-----------------------------------------------------------------------
Total correction                          0.00664294 Eh       4.17 kcal/mol

--------
ENTHALPY
--------

The enthalpy is H = U + kB*T
                kB is Boltzmann's constant
Total free energy                 ...  -1640.90852950 Eh
Thermal Enthalpy correction       ...      0.00094421 Eh       0.59 kcal/mol
-----------------------------------------------------------------------
Total Enthalpy                    ...  -1640.90758529 Eh

Note: Rotational entropy computed according to Herzberg
Infrared and Raman Spectra, Chapter V,1, Van Nostrand Reinhold, 1945
Point Group:  Cinfv, Symmetry Number:   1
Rotational constants in cm-1:     0.000000     7.598540     7.598540

Vibrational entropy computed according to the QRRHO of S. Grimme
Chem.Eur.J. 2012 18 9955

-------
ENTROPY
-------

The entropy contributions are T*S = T*(S(el)+S(vib)+S(rot)+S(trans))
     S(el)   - electronic entropy
     S(vib)  - vibrational entropy
     S(rot)  - rotational entropy
     S(trans)- translational entropy
The entropies will be listed as mutliplied by the temperature to get
units of energy

Electronic entropy                ...      0.00000000 Eh      0.00 kcal/mol
Vibrational entropy               ...      0.00000109 Eh      0.00 kcal/mol
Rotational entropy                ...      0.00406551 Eh      2.55 kcal/mol
Translational entropy             ...      0.01825147 Eh     11.45 kcal/mol
-----------------------------------------------------------------------
Final entropy term                ...      0.02231807 Eh     14.00 kcal/mol

In case the symmetry of your molecule has not been determined correctly
or in case you have a reason to use a different symmetry number we print
out the resulting rotational entropy values for sn=1,12 :
 --------------------------------------------------------
|  sn= 1 | S(rot)=             -inf Eh      -inf kcal/mol|
|  sn= 2 | S(rot)=             -inf Eh      -inf kcal/mol|
|  sn= 3 | S(rot)=             -inf Eh      -inf kcal/mol|
|  sn= 4 | S(rot)=             -inf Eh      -inf kcal/mol|
|  sn= 5 | S(rot)=             -inf Eh      -inf kcal/mol|
|  sn= 6 | S(rot)=             -inf Eh      -inf kcal/mol|
|  sn= 7 | S(rot)=             -inf Eh      -inf kcal/mol|
|  sn= 8 | S(rot)=             -inf Eh      -inf kcal/mol|
|  sn= 9 | S(rot)=             -inf Eh      -inf kcal/mol|
|  sn=10 | S(rot)=             -inf Eh      -inf kcal/mol|
|  sn=11 | S(rot)=             -inf Eh      -inf kcal/mol|
|  sn=12 | S(rot)=             -inf Eh      -inf kcal/mol|
 --------------------------------------------------------

-------------------
GIBBS FREE ENERGY
-------------------

The Gibbs free energy is G = H - T*S

Total enthalpy                    ...  -1640.90758529 Eh
Total entropy correction          ...     -0.02231807 Eh    -14.00 kcal/mol
-----------------------------------------------------------------------
Final Gibbs free energy         ...  -1640.92990336 Eh

For completeness - the Gibbs free energy minus the electronic energy
G-E(el)                           ...     -0.01473093 Eh     -9.24 kcal/mol

                             ****ORCA TERMINATED NORMALLY****
TOTAL RUN TIME: 0 days 0 hours 1 minutes 54 seconds 327 msec
