                         Program Version 4.2.0 -  RELEASE  -
|  1> #
|  2> # Cu02N0 ri-B2PLYP-D3BJ/Def2-TZVPPD
|  3> #
|  4> ! rijk ri-b2plyp d3bj def2-tzvppd def2/jk def2-tzvppd/c grid4 nofinalgrid opt xyzfile numfreq
|  5>
|  6> *xyz 0 1
|  7> Cu       0.000000    0.000000    1.107490
|  8> Cu       0.000000    0.000000   -1.107490
|  9> *
| 10>
| 11> %maxcore 5000
| 12>
| 13> %pal
| 14> nprocs = 24
| 15> end
| 16>
| 17>
| 18>                          ****END OF INPUT****
 Total Charge           Charge          ....    0
 Multiplicity           Mult            ....    1
 Number of Electrons    NEL             ....   58
Dispersion correction            ... done
MP2 TOTAL ENERGY:    -3280.700424374 Eh
Dispersion correction           -0.001418421
FINAL SINGLE POINT ENERGY     -3280.701842795391
Dispersion correction            ... done
MP2 TOTAL ENERGY:    -3280.700464179 Eh
Dispersion correction           -0.001418407
FINAL SINGLE POINT ENERGY     -3280.701882585291
FINAL SINGLE POINT ENERGY     -3280.702274904336
FINAL SINGLE POINT ENERGY     -3280.702192450773
Dispersion correction            ... done
MP2 TOTAL ENERGY:    -3280.700755609 Eh
Dispersion correction           -0.001419604
FINAL SINGLE POINT ENERGY     -3280.702175212440
                    ***********************HURRAY********************

CARTESIAN COORDINATES (ANGSTROEM)
---------------------------------
  Cu     0.000000    0.000000    1.153198
  Cu     0.000000    0.000000   -1.153198

 Multiplicity           Mult            ....    1
 Number of Electrons    NEL             ....   58
 Basis Dimension        Dim             ....  134

ORBITAL ENERGIES
----------------

  NO   OCC          E(Eh)            E(eV)
   0   2.0000    -325.407976     -8854.8012
   1   2.0000    -325.407969     -8854.8010
   2   2.0000     -39.617308     -1078.0418
   3   2.0000     -39.617278     -1078.0409
   4   2.0000     -34.652810      -942.9509
   5   2.0000     -34.652801      -942.9506
   6   2.0000     -34.652733      -942.9488
   7   2.0000     -34.652733      -942.9488
   8   2.0000     -34.652727      -942.9486
   9   2.0000     -34.652727      -942.9486
  10   2.0000      -4.567057      -124.2759
  11   2.0000      -4.566602      -124.2636
  12   2.0000      -2.988509       -81.3215
  13   2.0000      -2.984179       -81.2036
  14   2.0000      -2.984004       -81.1989
  15   2.0000      -2.984004       -81.1989
  16   2.0000      -2.983660       -81.1895
  17   2.0000      -2.983660       -81.1895
  18   2.0000      -0.368347       -10.0232
  19   2.0000      -0.358008        -9.7419
  20   2.0000      -0.358008        -9.7419
  21   2.0000      -0.343930        -9.3588
  22   2.0000      -0.343925        -9.3587
  23   2.0000      -0.337606        -9.1867
  24   2.0000      -0.337601        -9.1866
  25   2.0000      -0.327135        -8.9018
  26   2.0000      -0.327135        -8.9018
  27   2.0000      -0.321197        -8.7402
  28   2.0000      -0.221122        -6.0170
  29   0.0000      -0.043912        -1.1949
  30   0.0000       0.007810         0.2125
  31   0.0000       0.007810         0.2125
  32   0.0000       0.030097         0.8190
  33   0.0000       0.062745         1.7074

Dispersion correction            ... done

MULLIKEN ATOMIC CHARGES
-----------------------
   0 Cu:   -0.000002
   1 Cu:    0.000002
Sum of atomic charges:   -0.0000000

LOEWDIN ATOMIC CHARGES
----------------------
   0 Cu:   -0.000000
   1 Cu:    0.000000

  Mayer bond orders larger than 0.100000
B(  0-Cu,  1-Cu) :   1.0023

MP2 TOTAL ENERGY:    -3280.700755157 Eh
Dispersion correction           -0.001419606
FINAL SINGLE POINT ENERGY     -3280.702174762925

DIPOLE MOMENT
-------------
                                X             Y             Z
Electronic contribution:      0.00000       0.00000      -0.00000
Nuclear contribution   :      0.00000       0.00000       0.00000
                        -----------------------------------------
Total Dipole Moment    :      0.00000       0.00000      -0.00000
                        -----------------------------------------
Magnitude (a.u.)       :      0.00000
Magnitude (Debye)      :      0.00000

VIBRATIONAL FREQUENCIES
-----------------------

Scaling factor for frequencies =  1.000000000 (already applied!)

   0:         0.00 cm**-1
   1:         0.00 cm**-1
   2:         0.00 cm**-1
   3:         0.00 cm**-1
   4:         0.00 cm**-1
   5:       235.28 cm**-1

IR SPECTRUM
-----------

 Mode    freq (cm**-1)   T**2         TX         TY         TZ
-------------------------------------------------------------------
   5:       235.28    0.000000  ( -0.000002  -0.000008  -0.000037)

--------------------------
THERMOCHEMISTRY AT 298.15K
--------------------------

Temperature         ... 298.15 K
Pressure            ... 1.00 atm
Total Mass          ... 127.10 AMU
The molecule is recognized as being linear

Throughout the following assumptions are being made:
  (1) The electronic state is orbitally nondegenerate
  (2) There are no thermally accessible electronically excited states
  (3) Hindered rotations indicated by low frequency modes are not
      treated as such but are treated as vibrations and this may
      cause some error
  (4) All equations used are the standard statistical mechanics
      equations for an ideal gas
  (5) All vibrations are strictly harmonic

freq.     235.28  E(vib)   ...       0.32

------------
INNER ENERGY
------------

The inner energy is: U= E(el) + E(ZPE) + E(vib) + E(rot) + E(trans)
    E(el)   - is the total energy from the electronic structure calculation
              = E(kin-el) + E(nuc-el) + E(el-el) + E(nuc-nuc)
    E(ZPE)  - the the zero temperature vibrational energy from the frequency calculation
    E(vib)  - the the finite temperature correction to E(ZPE) due to population
              of excited vibrational states
    E(rot)  - is the rotational thermal energy
    E(trans)- is the translational thermal energy

Summary of contributions to the inner energy U:
Electronic energy                ...  -3280.70217470 Eh
Zero point energy                ...      0.00053601 Eh       0.34 kcal/mol
Thermal vibrational correction   ...      0.00050751 Eh       0.32 kcal/mol
Thermal rotational correction    ...      0.00094418 Eh       0.59 kcal/mol
Thermal translational correction ...      0.00141627 Eh       0.89 kcal/mol
-----------------------------------------------------------------------
Total thermal energy                  -3280.69877073 Eh

Summary of corrections to the electronic energy:
(perhaps to be used in another calculation)
Total thermal correction                  0.00286797 Eh       1.80 kcal/mol
Non-thermal (ZPE) correction              0.00053601 Eh       0.34 kcal/mol
-----------------------------------------------------------------------
Total correction                          0.00340397 Eh       2.14 kcal/mol

--------
ENTHALPY
--------

The enthalpy is H = U + kB*T
                kB is Boltzmann's constant
Total free energy                 ...  -3280.69877073 Eh
Thermal Enthalpy correction       ...      0.00094421 Eh       0.59 kcal/mol
-----------------------------------------------------------------------
Total Enthalpy                    ...  -3280.69782652 Eh

Note: Rotational entropy computed according to Herzberg
Infrared and Raman Spectra, Chapter V,1, Van Nostrand Reinhold, 1945
Point Group:  Dinfh, Symmetry Number:   2
Rotational constants in cm-1:     0.000000     0.099734     0.099734

Vibrational entropy computed according to the QRRHO of S. Grimme
Chem.Eur.J. 2012 18 9955

-------
ENTROPY
-------

The entropy contributions are T*S = T*(S(el)+S(vib)+S(rot)+S(trans))
     S(el)   - electronic entropy
     S(vib)  - vibrational entropy
     S(rot)  - rotational entropy
     S(trans)- translational entropy
The entropies will be listed as mutliplied by the temperature to get
units of energy

Electronic entropy                ...      0.00000000 Eh      0.00 kcal/mol
Vibrational entropy               ...      0.00087595 Eh      0.55 kcal/mol
Rotational entropy                ...      0.00750238 Eh      4.71 kcal/mol
Translational entropy             ...      0.01921087 Eh     12.05 kcal/mol
-----------------------------------------------------------------------
Final entropy term                ...      0.02758920 Eh     17.31 kcal/mol

In case the symmetry of your molecule has not been determined correctly
or in case you have a reason to use a different symmetry number we print
out the resulting rotational entropy values for sn=1,12 :
 --------------------------------------------------------
|  sn= 1 | S(rot)=             -inf Eh      -inf kcal/mol|
|  sn= 2 | S(rot)=             -inf Eh      -inf kcal/mol|
|  sn= 3 | S(rot)=             -inf Eh      -inf kcal/mol|
|  sn= 4 | S(rot)=             -inf Eh      -inf kcal/mol|
|  sn= 5 | S(rot)=             -inf Eh      -inf kcal/mol|
|  sn= 6 | S(rot)=             -inf Eh      -inf kcal/mol|
|  sn= 7 | S(rot)=             -inf Eh      -inf kcal/mol|
|  sn= 8 | S(rot)=             -inf Eh      -inf kcal/mol|
|  sn= 9 | S(rot)=             -inf Eh      -inf kcal/mol|
|  sn=10 | S(rot)=             -inf Eh      -inf kcal/mol|
|  sn=11 | S(rot)=             -inf Eh      -inf kcal/mol|
|  sn=12 | S(rot)=             -inf Eh      -inf kcal/mol|
 --------------------------------------------------------

-------------------
GIBBS FREE ENERGY
-------------------

The Gibbs free energy is G = H - T*S

Total enthalpy                    ...  -3280.69782652 Eh
Total entropy correction          ...     -0.02758920 Eh    -17.31 kcal/mol
-----------------------------------------------------------------------
Final Gibbs free energy         ...  -3280.72541572 Eh

For completeness - the Gibbs free energy minus the electronic energy
G-E(el)                           ...     -0.02324102 Eh    -14.58 kcal/mol

                             ****ORCA TERMINATED NORMALLY****
TOTAL RUN TIME: 0 days 0 hours 2 minutes 42 seconds 991 msec
