                         Program Version 4.2.0 -  RELEASE  -
|  1> #
|  2> # Cu03C1_D3H ri-B2PLYP-D3BJ/Def2-TZVPPD
|  3> #
|  4> ! rijk ri-b2plyp d3bj def2-tzvppd def2/jk def2-tzvppd/c grid4 nofinalgrid opt xyzfile numfreq
|  5>
|  6> *xyz 1 1
|  7> Cu       0.000000    1.349261   -0.000000
|  8> Cu       1.168494   -0.674630    0.000000
|  9> Cu      -1.168494   -0.674630   -0.000000
| 10> *
| 11>
| 12> %maxcore 5000
| 13>
| 14> %pal
| 15> nprocs = 24
| 16> end
| 17>
| 18>
| 19>                          ****END OF INPUT****
 Total Charge           Charge          ....    1
 Multiplicity           Mult            ....    1
 Number of Electrons    NEL             ....   86
Dispersion correction            ... done
MP2 TOTAL ENERGY:    -4920.845168866 Eh
Dispersion correction           -0.004164124
FINAL SINGLE POINT ENERGY     -4920.849332989358
Dispersion correction            ... done
MP2 TOTAL ENERGY:    -4920.845242163 Eh
Dispersion correction           -0.004163557
FINAL SINGLE POINT ENERGY     -4920.849405720541
FINAL SINGLE POINT ENERGY     -4920.849718110939
FINAL SINGLE POINT ENERGY     -4920.849430871750
Dispersion correction            ... done
MP2 TOTAL ENERGY:    -4920.845243806 Eh
Dispersion correction           -0.004140958
FINAL SINGLE POINT ENERGY     -4920.849384764245
                    ***********************HURRAY********************

CARTESIAN COORDINATES (ANGSTROEM)
---------------------------------
  Cu    -0.000000    1.406911    0.000000
  Cu     1.218045   -0.703455    0.000000
  Cu    -1.218045   -0.703455    0.000000

 Multiplicity           Mult            ....    1
 Number of Electrons    NEL             ....   86
 Basis Dimension        Dim             ....  201

ORBITAL ENERGIES
----------------

  NO   OCC          E(Eh)            E(eV)
   0   2.0000    -325.622877     -8860.6490
   1   2.0000    -325.622876     -8860.6489
   2   2.0000    -325.622868     -8860.6487
   3   2.0000     -39.830879     -1083.8533
   4   2.0000     -39.830878     -1083.8533
   5   2.0000     -39.830845     -1083.8524
   6   2.0000     -34.867153      -948.7835
   7   2.0000     -34.867139      -948.7831
   8   2.0000     -34.867139      -948.7831
   9   2.0000     -34.866428      -948.7638
  10   2.0000     -34.866428      -948.7637
  11   2.0000     -34.866415      -948.7634
  12   2.0000     -34.866245      -948.7588
  13   2.0000     -34.866244      -948.7587
  14   2.0000     -34.866237      -948.7586
  15   2.0000      -4.781494      -130.1111
  16   2.0000      -4.781152      -130.1018
  17   2.0000      -4.781150      -130.1017
  18   2.0000      -3.202545       -87.1457
  19   2.0000      -3.201136       -87.1073
  20   2.0000      -3.201132       -87.1072
  21   2.0000      -3.199450       -87.0615
  22   2.0000      -3.199118       -87.0524
  23   2.0000      -3.199115       -87.0523
  24   2.0000      -3.198349       -87.0315
  25   2.0000      -3.198070       -87.0239
  26   2.0000      -3.198066       -87.0238
  27   2.0000      -0.591004       -16.0820
  28   2.0000      -0.576371       -15.6839
  29   2.0000      -0.576344       -15.6831
  30   2.0000      -0.576057       -15.6753
  31   2.0000      -0.566722       -15.4213
  32   2.0000      -0.563993       -15.3470
  33   2.0000      -0.563990       -15.3469
  34   2.0000      -0.549261       -14.9462
  35   2.0000      -0.549245       -14.9457
  36   2.0000      -0.547376       -14.8949
  37   2.0000      -0.543781       -14.7970
  38   2.0000      -0.543765       -14.7966
  39   2.0000      -0.542853       -14.7718
  40   2.0000      -0.542813       -14.7707
  41   2.0000      -0.527003       -14.3405
  42   2.0000      -0.455103       -12.3840
  43   0.0000      -0.224144        -6.0993
  44   0.0000      -0.224118        -6.0986
  45   0.0000      -0.169358        -4.6085
  46   0.0000      -0.135085        -3.6758
  47   0.0000      -0.115387        -3.1398

Dispersion correction            ... done

MULLIKEN ATOMIC CHARGES
-----------------------
   0 Cu:    0.333515
   1 Cu:    0.333242
   2 Cu:    0.333243
Sum of atomic charges:    1.0000000

LOEWDIN ATOMIC CHARGES
----------------------
   0 Cu:    0.333388
   1 Cu:    0.333306
   2 Cu:    0.333306

  Mayer bond orders larger than 0.100000
B(  0-Cu,  1-Cu) :   0.5021 B(  0-Cu,  2-Cu) :   0.5021 B(  1-Cu,  2-Cu) :   0.5024

MP2 TOTAL ENERGY:    -4920.845242608 Eh
Dispersion correction           -0.004140946
FINAL SINGLE POINT ENERGY     -4920.849383553230

DIPOLE MOMENT
-------------
                                X             Y             Z
Electronic contribution:      0.00000       0.00032      -0.00000
Nuclear contribution   :     -0.00000       0.00000       0.00000
                        -----------------------------------------
Total Dipole Moment    :      0.00000       0.00032      -0.00000
                        -----------------------------------------
Magnitude (a.u.)       :      0.00032
Magnitude (Debye)      :      0.00081

VIBRATIONAL FREQUENCIES
-----------------------

Scaling factor for frequencies =  1.000000000 (already applied!)

   0:         0.00 cm**-1
   1:         0.00 cm**-1
   2:         0.00 cm**-1
   3:         0.00 cm**-1
   4:         0.00 cm**-1
   5:         0.00 cm**-1
   6:       173.24 cm**-1
   7:       174.09 cm**-1
   8:       243.10 cm**-1

IR SPECTRUM
-----------

 Mode    freq (cm**-1)   T**2         TX         TY         TZ
-------------------------------------------------------------------
   6:       173.24    2.066605  ( -1.437567   0.002746   0.000003)
   7:       174.09    2.275454  (  0.002624   1.508459  -0.000003)
   8:       243.10    0.000083  (  0.000073   0.009113  -0.000001)

--------------------------
THERMOCHEMISTRY AT 298.15K
--------------------------

Temperature         ... 298.15 K
Pressure            ... 1.00 atm
Total Mass          ... 190.65 AMU

Throughout the following assumptions are being made:
  (1) The electronic state is orbitally nondegenerate
  (2) There are no thermally accessible electronically excited states
  (3) Hindered rotations indicated by low frequency modes are not
      treated as such but are treated as vibrations and this may
      cause some error
  (4) All equations used are the standard statistical mechanics
      equations for an ideal gas
  (5) All vibrations are strictly harmonic

freq.     173.24  E(vib)   ...       0.38
freq.     174.09  E(vib)   ...       0.38
freq.     243.10  E(vib)   ...       0.31

------------
INNER ENERGY
------------

The inner energy is: U= E(el) + E(ZPE) + E(vib) + E(rot) + E(trans)
    E(el)   - is the total energy from the electronic structure calculation
              = E(kin-el) + E(nuc-el) + E(el-el) + E(nuc-nuc)
    E(ZPE)  - the the zero temperature vibrational energy from the frequency calculation
    E(vib)  - the the finite temperature correction to E(ZPE) due to population
              of excited vibrational states
    E(rot)  - is the rotational thermal energy
    E(trans)- is the translational thermal energy

Summary of contributions to the inner energy U:
Electronic energy                ...  -4920.84938321 Eh
Zero point energy                ...      0.00134510 Eh       0.84 kcal/mol
Thermal vibrational correction   ...      0.00170265 Eh       1.07 kcal/mol
Thermal rotational correction    ...      0.00141627 Eh       0.89 kcal/mol
Thermal translational correction ...      0.00141627 Eh       0.89 kcal/mol
-----------------------------------------------------------------------
Total thermal energy                  -4920.84350292 Eh

Summary of corrections to the electronic energy:
(perhaps to be used in another calculation)
Total thermal correction                  0.00453520 Eh       2.85 kcal/mol
Non-thermal (ZPE) correction              0.00134510 Eh       0.84 kcal/mol
-----------------------------------------------------------------------
Total correction                          0.00588029 Eh       3.69 kcal/mol

--------
ENTHALPY
--------

The enthalpy is H = U + kB*T
                kB is Boltzmann's constant
Total free energy                 ...  -4920.84350292 Eh
Thermal Enthalpy correction       ...      0.00094421 Eh       0.59 kcal/mol
-----------------------------------------------------------------------
Total Enthalpy                    ...  -4920.84255871 Eh

Note: Rotational entropy computed according to Herzberg
Infrared and Raman Spectra, Chapter V,1, Van Nostrand Reinhold, 1945
Point Group:  C2v, Symmetry Number:   2
Rotational constants in cm-1:     0.089397     0.089342     0.044685

Vibrational entropy computed according to the QRRHO of S. Grimme
Chem.Eur.J. 2012 18 9955

-------
ENTROPY
-------

The entropy contributions are T*S = T*(S(el)+S(vib)+S(rot)+S(trans))
     S(el)   - electronic entropy
     S(vib)  - vibrational entropy
     S(rot)  - rotational entropy
     S(trans)- translational entropy
The entropies will be listed as mutliplied by the temperature to get
units of energy

Electronic entropy                ...      0.00000000 Eh      0.00 kcal/mol
Vibrational entropy               ...      0.00311634 Eh      1.96 kcal/mol
Rotational entropy                ...      0.01260384 Eh      7.91 kcal/mol
Translational entropy             ...      0.01978512 Eh     12.42 kcal/mol
-----------------------------------------------------------------------
Final entropy term                ...      0.03550529 Eh     22.28 kcal/mol

In case the symmetry of your molecule has not been determined correctly
or in case you have a reason to use a different symmetry number we print
out the resulting rotational entropy values for sn=1,12 :
 --------------------------------------------------------
|  sn= 1 | S(rot)=       0.01325830 Eh      8.32 kcal/mol|
|  sn= 2 | S(rot)=       0.01260384 Eh      7.91 kcal/mol|
|  sn= 3 | S(rot)=       0.01222101 Eh      7.67 kcal/mol|
|  sn= 4 | S(rot)=       0.01194938 Eh      7.50 kcal/mol|
|  sn= 5 | S(rot)=       0.01173869 Eh      7.37 kcal/mol|
|  sn= 6 | S(rot)=       0.01156655 Eh      7.26 kcal/mol|
|  sn= 7 | S(rot)=       0.01142100 Eh      7.17 kcal/mol|
|  sn= 8 | S(rot)=       0.01129493 Eh      7.09 kcal/mol|
|  sn= 9 | S(rot)=       0.01118372 Eh      7.02 kcal/mol|
|  sn=10 | S(rot)=       0.01108424 Eh      6.96 kcal/mol|
|  sn=11 | S(rot)=       0.01099425 Eh      6.90 kcal/mol|
|  sn=12 | S(rot)=       0.01091209 Eh      6.85 kcal/mol|
 --------------------------------------------------------

-------------------
GIBBS FREE ENERGY
-------------------

The Gibbs free energy is G = H - T*S

Total enthalpy                    ...  -4920.84255871 Eh
Total entropy correction          ...     -0.03550529 Eh    -22.28 kcal/mol
-----------------------------------------------------------------------
Final Gibbs free energy         ...  -4920.87806400 Eh

For completeness - the Gibbs free energy minus the electronic energy
G-E(el)                           ...     -0.02868079 Eh    -18.00 kcal/mol

                             ****ORCA TERMINATED NORMALLY****
TOTAL RUN TIME: 0 days 0 hours 8 minutes 9 seconds 501 msec
