                         Program Version 4.2.0 -  RELEASE  -
|  1> #
|  2> # Cu03N0_D3H ri-B2PLYP-D3BJ/Def2-TZVPPD
|  3> #
|  4> ! rijk ri-b2plyp d3bj def2-tzvppd def2/jk def2-tzvppd/c grid4 nofinalgrid opt xyzfile numfreq
|  5>
|  6> *xyz 0 2
|  7> Cu       0.000000    1.346828   -0.000000
|  8> Cu       1.166387   -0.673414   -0.000000
|  9> Cu      -1.166387   -0.673414   -0.000000
| 10> *
| 11>
| 12> %maxcore 5000
| 13>
| 14> %pal
| 15> nprocs = 24
| 16> end
| 17>
| 18>
| 19>                          ****END OF INPUT****
 Total Charge           Charge          ....    0
 Multiplicity           Mult            ....    2
 Number of Electrons    NEL             ....   87
Dispersion correction            ... done
MP2 TOTAL ENERGY:    -4921.051095664 Eh
Dispersion correction           -0.004164994
FINAL SINGLE POINT ENERGY     -4921.055260657503
Dispersion correction            ... done
MP2 TOTAL ENERGY:    -4921.051247636 Eh
Dispersion correction           -0.004164444
FINAL SINGLE POINT ENERGY     -4921.055412080424
FINAL SINGLE POINT ENERGY     -4921.057408958890
FINAL SINGLE POINT ENERGY     -4921.057311030660
Dispersion correction            ... done
MP2 TOTAL ENERGY:    -4921.053099070 Eh
Dispersion correction           -0.004138090
FINAL SINGLE POINT ENERGY     -4921.057237160764
                    ***********************HURRAY********************

CARTESIAN COORDINATES (ANGSTROEM)
---------------------------------
  Cu     0.000001    1.470514    0.000000
  Cu     1.167274   -0.735256    0.000000
  Cu    -1.167274   -0.735258    0.000000

 Multiplicity           Mult            ....    2
 Number of Electrons    NEL             ....   87
 Basis Dimension        Dim             ....  201

ORBITAL ENERGIES
----------------
                 SPIN UP ORBITALS
  NO   OCC          E(Eh)            E(eV)
   0   1.0000    -325.428707     -8855.3653
   1   1.0000    -325.428702     -8855.3652
   2   1.0000    -325.407740     -8854.7948
   3   1.0000     -39.638217     -1078.6107
   4   1.0000     -39.638195     -1078.6101
   5   1.0000     -39.618573     -1078.0762
   6   1.0000     -34.673850      -943.5234
   7   1.0000     -34.673845      -943.5233
   8   1.0000     -34.673700      -943.5193
   9   1.0000     -34.673689      -943.5191
  10   1.0000     -34.673485      -943.5135
  11   1.0000     -34.673480      -943.5134
  12   1.0000     -34.653811      -942.9781
  13   1.0000     -34.653794      -942.9777
  14   1.0000     -34.652876      -942.9527
  15   1.0000      -4.587922      -124.8437
  16   1.0000      -4.587520      -124.8328
  17   1.0000      -4.566993      -124.2742
  18   1.0000      -3.009260       -81.8861
  19   1.0000      -3.005392       -81.7809
  20   1.0000      -3.005113       -81.7733
  21   1.0000      -3.004769       -81.7639
  22   1.0000      -3.004548       -81.7579
  23   1.0000      -3.004242       -81.7496
  24   1.0000      -2.984062       -81.2004
  25   1.0000      -2.983975       -81.1981
  26   1.0000      -2.982054       -81.1458
  27   1.0000      -0.393321       -10.7028
  28   1.0000      -0.385484       -10.4896
  29   1.0000      -0.380066       -10.3421
  30   1.0000      -0.369504       -10.0547
  31   1.0000      -0.368442       -10.0258
  32   1.0000      -0.368053       -10.0152
  33   1.0000      -0.360745        -9.8164
  34   1.0000      -0.350795        -9.5456
  35   1.0000      -0.348510        -9.4834
  36   1.0000      -0.346009        -9.4154
  37   1.0000      -0.338111        -9.2005
  38   1.0000      -0.337353        -9.1798
  39   1.0000      -0.334635        -9.1059
  40   1.0000      -0.334163        -9.0930
  41   1.0000      -0.324213        -8.8223
  42   1.0000      -0.276783        -7.5316
  43   1.0000      -0.156496        -4.2585
  44   0.0000      -0.060836        -1.6554
  45   0.0000      -0.011831        -0.3219
  46   0.0000       0.005835         0.1588
  47   0.0000       0.026837         0.7303
  48   0.0000       0.027851         0.7579

                 SPIN DOWN ORBITALS
  NO   OCC          E(Eh)            E(eV)
   0   1.0000    -325.428463     -8855.3587
   1   1.0000    -325.428458     -8855.3585
   2   1.0000    -325.406843     -8854.7704
   3   1.0000     -39.638175     -1078.6096
   4   1.0000     -39.638153     -1078.6090
   5   1.0000     -39.618135     -1078.0643
   6   1.0000     -34.673883      -943.5243
   7   1.0000     -34.673872      -943.5240
   8   1.0000     -34.673637      -943.5176
   9   1.0000     -34.673632      -943.5175
  10   1.0000     -34.673534      -943.5148
  11   1.0000     -34.673527      -943.5146
  12   1.0000     -34.654043      -942.9845
  13   1.0000     -34.653679      -942.9745
  14   1.0000     -34.653267      -942.9633
  15   1.0000      -4.587571      -124.8342
  16   1.0000      -4.587171      -124.8233
  17   1.0000      -4.565128      -124.2235
  18   1.0000      -3.008979       -81.8785
  19   1.0000      -3.005760       -81.7909
  20   1.0000      -3.004990       -81.7699
  21   1.0000      -3.004670       -81.7612
  22   1.0000      -3.004374       -81.7532
  23   1.0000      -3.004072       -81.7450
  24   1.0000      -2.984577       -81.2145
  25   1.0000      -2.983313       -81.1801
  26   1.0000      -2.981885       -81.1412
  27   1.0000      -0.393343       -10.7034
  28   1.0000      -0.383727       -10.4417
  29   1.0000      -0.380021       -10.3409
  30   1.0000      -0.367769       -10.0075
  31   1.0000      -0.367733       -10.0065
  32   1.0000      -0.367036        -9.9875
  33   1.0000      -0.360841        -9.8190
  34   1.0000      -0.350155        -9.5282
  35   1.0000      -0.348617        -9.4863
  36   1.0000      -0.346440        -9.4271
  37   1.0000      -0.337064        -9.1720
  38   1.0000      -0.336435        -9.1549
  39   1.0000      -0.333191        -9.0666
  40   1.0000      -0.332376        -9.0444
  41   1.0000      -0.321349        -8.7444
  42   1.0000      -0.260748        -7.0953
  43   0.0000      -0.054912        -1.4942
  44   0.0000      -0.038164        -1.0385
  45   0.0000      -0.007129        -0.1940
  46   0.0000       0.015640         0.4256
  47   0.0000       0.040072         1.0904

Dispersion correction            ... done

MULLIKEN ATOMIC CHARGES AND SPIN DENSITIES
------------------------------------------
   0 Cu:   -0.096969    0.629785
   1 Cu:    0.048486    0.185105
   2 Cu:    0.048483    0.185110
Sum of atomic charges       :   -0.0000000

LOEWDIN ATOMIC CHARGES AND SPIN DENSITIES
-----------------------------------------
   0 Cu:   -0.026736    0.425302
   1 Cu:    0.013368    0.287349
   2 Cu:    0.013368    0.287350

  Mayer bond orders larger than 0.100000
B(  0-Cu,  1-Cu) :   0.3624 B(  0-Cu,  2-Cu) :   0.3624 B(  1-Cu,  2-Cu) :   0.7899

MP2 TOTAL ENERGY:    -4921.053092112 Eh
Dispersion correction           -0.004137930
FINAL SINGLE POINT ENERGY     -4921.057230042605

DIPOLE MOMENT
-------------
                                X             Y             Z
Electronic contribution:      0.00000      -0.38487       0.00000
Nuclear contribution   :      0.00000       0.00000       0.00000
                        -----------------------------------------
Total Dipole Moment    :      0.00000      -0.38487       0.00000
                        -----------------------------------------
Magnitude (a.u.)       :      0.38487
Magnitude (Debye)      :      0.97826

VIBRATIONAL FREQUENCIES
-----------------------

Scaling factor for frequencies =  1.000000000 (already applied!)

   0:         0.00 cm**-1
   1:         0.00 cm**-1
   2:         0.00 cm**-1
   3:         0.00 cm**-1
   4:         0.00 cm**-1
   5:         0.00 cm**-1
   6:       -93.04 cm**-1 ***imaginary mode***
   7:       180.50 cm**-1
   8:       244.38 cm**-1

IR SPECTRUM
-----------

 Mode    freq (cm**-1)   T**2         TX         TY         TZ
-------------------------------------------------------------------
   7:       180.50    0.092040  ( -0.001973  -0.303375  -0.000012)
   8:       244.38    0.754150  ( -0.000917  -0.868417  -0.000002)

--------------------------
THERMOCHEMISTRY AT 298.15K
--------------------------

Temperature         ... 298.15 K
Pressure            ... 1.00 atm
Total Mass          ... 190.65 AMU

Throughout the following assumptions are being made:
  (1) The electronic state is orbitally nondegenerate
      but the spin degeneracy is treated
  (2) There are no thermally accessible electronically excited states
  (3) Hindered rotations indicated by low frequency modes are not
      treated as such but are treated as vibrations and this may
      cause some error
  (4) All equations used are the standard statistical mechanics
      equations for an ideal gas
  (5) All vibrations are strictly harmonic

freq.     180.50  E(vib)   ...       0.37
freq.     244.38  E(vib)   ...       0.31

------------
INNER ENERGY
------------

The inner energy is: U= E(el) + E(ZPE) + E(vib) + E(rot) + E(trans)
    E(el)   - is the total energy from the electronic structure calculation
              = E(kin-el) + E(nuc-el) + E(el-el) + E(nuc-nuc)
    E(ZPE)  - the the zero temperature vibrational energy from the frequency calculation
    E(vib)  - the the finite temperature correction to E(ZPE) due to population
              of excited vibrational states
    E(rot)  - is the rotational thermal energy
    E(trans)- is the translational thermal energy

Summary of contributions to the inner energy U:
Electronic energy                ...  -4921.05723005 Eh
Zero point energy                ...      0.00096795 Eh       0.61 kcal/mol
Thermal vibrational correction   ...      0.00108639 Eh       0.68 kcal/mol
Thermal rotational correction    ...      0.00141627 Eh       0.89 kcal/mol
Thermal translational correction ...      0.00141627 Eh       0.89 kcal/mol
-----------------------------------------------------------------------
Total thermal energy                  -4921.05234316 Eh

Summary of corrections to the electronic energy:
(perhaps to be used in another calculation)
Total thermal correction                  0.00391894 Eh       2.46 kcal/mol
Non-thermal (ZPE) correction              0.00096795 Eh       0.61 kcal/mol
-----------------------------------------------------------------------
Total correction                          0.00488688 Eh       3.07 kcal/mol

--------
ENTHALPY
--------

The enthalpy is H = U + kB*T
                kB is Boltzmann's constant
Total free energy                 ...  -4921.05234316 Eh
Thermal Enthalpy correction       ...      0.00094421 Eh       0.59 kcal/mol
-----------------------------------------------------------------------
Total Enthalpy                    ...  -4921.05139896 Eh

Note: Rotational entropy computed according to Herzberg
Infrared and Raman Spectra, Chapter V,1, Van Nostrand Reinhold, 1945
Point Group:  Cs, Symmetry Number:   1
Rotational constants in cm-1:     0.097343     0.081781     0.044443

Vibrational entropy computed according to the QRRHO of S. Grimme
Chem.Eur.J. 2012 18 9955

-------
ENTROPY
-------

The entropy contributions are T*S = T*(S(el)+S(vib)+S(rot)+S(trans))
     S(el)   - electronic entropy
     S(vib)  - vibrational entropy
     S(rot)  - rotational entropy
     S(trans)- translational entropy
The entropies will be listed as mutliplied by the temperature to get
units of energy

Electronic entropy                ...      0.00065446 Eh      0.41 kcal/mol
Vibrational entropy               ...      0.00194553 Eh      1.22 kcal/mol
Rotational entropy                ...      0.01326241 Eh      8.32 kcal/mol
Translational entropy             ...      0.01978512 Eh     12.42 kcal/mol
-----------------------------------------------------------------------
Final entropy term                ...      0.03564751 Eh     22.37 kcal/mol

In case the symmetry of your molecule has not been determined correctly
or in case you have a reason to use a different symmetry number we print
out the resulting rotational entropy values for sn=1,12 :
 --------------------------------------------------------
|  sn= 1 | S(rot)=       0.01326241 Eh      8.32 kcal/mol|
|  sn= 2 | S(rot)=       0.01260795 Eh      7.91 kcal/mol|
|  sn= 3 | S(rot)=       0.01222512 Eh      7.67 kcal/mol|
|  sn= 4 | S(rot)=       0.01195349 Eh      7.50 kcal/mol|
|  sn= 5 | S(rot)=       0.01174280 Eh      7.37 kcal/mol|
|  sn= 6 | S(rot)=       0.01157066 Eh      7.26 kcal/mol|
|  sn= 7 | S(rot)=       0.01142511 Eh      7.17 kcal/mol|
|  sn= 8 | S(rot)=       0.01129904 Eh      7.09 kcal/mol|
|  sn= 9 | S(rot)=       0.01118783 Eh      7.02 kcal/mol|
|  sn=10 | S(rot)=       0.01108835 Eh      6.96 kcal/mol|
|  sn=11 | S(rot)=       0.01099836 Eh      6.90 kcal/mol|
|  sn=12 | S(rot)=       0.01091620 Eh      6.85 kcal/mol|
 --------------------------------------------------------

-------------------
GIBBS FREE ENERGY
-------------------

The Gibbs free energy is G = H - T*S

Total enthalpy                    ...  -4921.05139896 Eh
Total entropy correction          ...     -0.03564751 Eh    -22.37 kcal/mol
-----------------------------------------------------------------------
Final Gibbs free energy         ...  -4921.08704647 Eh

For completeness - the Gibbs free energy minus the electronic energy
G-E(el)                           ...     -0.02981642 Eh    -18.71 kcal/mol

                             ****ORCA TERMINATED NORMALLY****
TOTAL RUN TIME: 0 days 0 hours 11 minutes 41 seconds 25 msec
