                               Psi4 1.3.2 release

  ==> Input File <==

--------------------------------------------------------------------------
memory 144 GB

molecule {
0 1
Ag       0.000000    0.000000    0.033547
H        0.000000    0.000000   -1.576706
 }

set basis Def2-TZVPPD

energy("M11-D3BJ")
--------------------------------------------------------------------------

    Molecular point group: c2v

    Geometry (in Angstrom), charge = 0, multiplicity = 1:

       Center              X                  Y                   Z               Mass
    ------------   -----------------  -----------------  -----------------  -----------------
         AG           0.000000000000     0.000000000000     0.015038545267   106.905091600000
         H            0.000000000000     0.000000000000    -1.595214454733     1.007825032230

  Charge       = 0
  Multiplicity = 1
  Basis Set: DEF2-TZVPPD
    Blend: DEF2-TZVPPD
  Basis Set: (DEF2-TZVPPD AUX)
    Blend: DEF2-TZVPP-JKFIT

    Orbital Energies [Eh]
    ---------------------

    Doubly Occupied:

       1A1    -3.883383     2A1    -2.481591     1B1    -2.472479
       1B2    -2.472479     3A1    -0.502659     2B1    -0.464133
       2B2    -0.464133     4A1    -0.457018     1A2    -0.457012
       5A1    -0.330017

  @DF-RKS Final Energy:  -147.41646815704962

   => Energetics <=

    Nuclear Repulsion Energy =              6.2439672540464146
    One-Electron Energy =                -273.9608847699406056
    Two-Electron Energy =                 127.2988742364031651
    DFT Exchange-Correlation Energy =      -6.9983751975586159
    Empirical Dispersion Energy =          -0.0000496800000000
    VV10 Nonlocal Energy =                  0.0000000000000000
    Total Energy =                       -147.4164681570496498

  Dipole Moment: [D]
     X:     0.0000      Y:     0.0000      Z:     3.4663     Total:     3.4663

*** Psi4 exiting successfully. Buy a developer a beer!
