                               Psi4 1.4.1 release

  ==> Input File <==

--------------------------------------------------------------------------
memory 144 GB

molecule {
0 2
Ag       0.000000    0.000000    0.000000
 }

set reference uks
set basis Def2-TZVPPD

energy("M11-D3BJ")
--------------------------------------------------------------------------

    Molecular point group: d2h
    Geometry (in Angstrom), charge = 0, multiplicity = 2:

       Center              X                  Y                   Z               Mass
    ------------   -----------------  -----------------  -----------------  -----------------
         AG           0.000000000000     0.000000000000     0.000000000000   106.905091600000

  Charge       = 0
  Multiplicity = 2
  Basis Set: DEF2-TZVPPD
    Blend: DEF2-TZVPPD
  Basis Set: (DEF2-TZVPPD AUX)
    Blend: DEF2-UNIVERSAL-JKFIT

    Orbital Energies [Eh]
    ---------------------

    Alpha Occupied:

       1Ag    -3.861486     1B1u   -2.454641     1B2u   -2.454641
       1B3u   -2.454641     1B3g   -0.444459     2Ag    -0.444459
       3Ag    -0.444458     1B2g   -0.444458     1B1g   -0.444458
       4Ag    -0.247654

    Alpha Virtual:

       2B3u    0.045637     2B2u    0.045637     2B1u    0.045637
       5Ag     0.144584     3B1u    0.261409     3B2u    0.261409
       3B3u    0.261409     6Ag     0.490918     2B3g    0.490918
       7Ag     0.490918     2B2g    0.490918     2B1g    0.490918
       4B1u    1.686275     4B2u    1.686275     4B3u    1.686275
       5B2u    1.708511     5B1u    1.708511     1Au     1.708511
       5B3u    1.708511     6B2u    1.708511     6B1u    1.708511
       6B3u    1.708511     8Ag     1.935276     3B3g    2.154011
       9Ag     2.154011    10Ag     2.154011     3B2g    2.154011
       3B1g    2.154011     7B2u    4.899001     7B1u    4.899001
       7B3u    4.899001     8B1u    4.899001     8B2u    4.899001
       2Au     4.899001     8B3u    4.899001     4B3g    5.662992
      11Ag     5.662992     4B2g    5.662992     4B1g    5.662992
       5B1g    5.662993     5B3g    5.662993    12Ag     5.662993
       5B2g    5.662993    13Ag     5.662993    14Ag    33.242575
      15Ag   110.490366

    Beta Occupied:

       1Ag    -3.857253     1B3u   -2.451935     1B2u   -2.451935
       1B1u   -2.451934     1B1g   -0.439317     1B2g   -0.439317
       2Ag    -0.439317     3Ag    -0.439317     1B3g   -0.439317

    Beta Virtual:

       4Ag    -0.050698     2B2u   -0.016207     2B1u   -0.016207
       2B3u   -0.016207     5Ag     0.108780     3B1u    0.263526
       3B2u    0.263526     3B3u    0.263527     6Ag     0.504237
       2B3g    0.504237     2B2g    0.504237     7Ag     0.504237
       2B1g    0.504237     4B2u    1.681402     4B1u    1.681402
       4B3u    1.681402     5B3u    1.711876     1Au     1.711876
       5B2u    1.711876     5B1u    1.711876     6B2u    1.711876
       6B3u    1.711876     6B1u    1.711876     8Ag     1.950006
       3B1g    2.147081     3B2g    2.147081     9Ag     2.147081
       3B3g    2.147081    10Ag     2.147081     7B3u    4.896427
       7B2u    4.896427     2Au     4.896427     7B1u    4.896427
       8B3u    4.896427     8B1u    4.896427     8B2u    4.896427
       4B1g    5.668510     4B2g    5.668510    11Ag     5.668510
       5B1g    5.668510     4B3g    5.668510     5B2g    5.668510
      12Ag     5.668510     5B3g    5.668510    13Ag     5.668510
      14Ag    33.248750    15Ag   110.491515

    Final Occupation by Irrep:
             Ag   B1g   B2g   B3g    Au   B1u   B2u   B3u
    DOCC [     3,    1,    1,    1,    0,    1,    1,    1 ]
    SOCC [     1,    0,    0,    0,    0,    0,    0,    0 ]

  @DF-UKS Final Energy:  -146.82612808544107

   => Energetics <=

    Nuclear Repulsion Energy =              0.0000000000000000
    One-Electron Energy =                -261.2259006839771018
    Two-Electron Energy =                 121.2599209197057633
    DFT Exchange-Correlation Energy =      -6.8601483211697492
    Empirical Dispersion Energy =           0.0000000000000000
    VV10 Nonlocal Energy =                  0.0000000000000000
    Total Energy =                       -146.8261280854410984

  UHF NO Occupations:
  HONO-2 :    1B2g 1.9999535
  HONO-1 :    1B1g 1.9999535
  HONO-0 :    4 Ag 1.0000000
  LUNO+0 :    2B1g 0.0000465
  LUNO+1 :    2B2g 0.0000465
  LUNO+2 :    5 Ag 0.0000465
  LUNO+3 :    6 Ag 0.0000465

Computation Completed

Properties will be evaluated at   0.000000,   0.000000,   0.000000 [a0]

Properties computed using the SCF density matrix

  Nuclear Dipole Moment: [e a0]
     X:     0.0000      Y:     0.0000      Z:     0.0000

  Electronic Dipole Moment: [e a0]
     X:     0.0000      Y:     0.0000      Z:     0.0000

  Dipole Moment: [e a0]
     X:     0.0000      Y:     0.0000      Z:     0.0000     Total:     0.0000

  Dipole Moment: [D]
     X:     0.0000      Y:     0.0000      Z:     0.0000     Total:     0.0000

*** tstop() called on compute415.bc4.acrc.priv at Tue Nov  2 11:06:22 2021
Module time:
	user time   =      68.36 seconds =       1.14 minutes
	system time =       2.88 seconds =       0.05 minutes
	total time  =          5 seconds =       0.08 minutes
Total time:
	user time   =      68.36 seconds =       1.14 minutes
	system time =       2.88 seconds =       0.05 minutes
	total time  =          5 seconds =       0.08 minutes

    Psi4 stopped on: Tuesday, 02 November 2021 11:06AM
    Psi4 wall time for execution: 0:00:05.14

*** Psi4 exiting successfully. Buy a developer a beer!
