                               Psi4 1.3.2 release

  ==> Input File <==

--------------------------------------------------------------------------
memory 144 GB

molecule {
0 1
Ag       0.000000    0.000000    0.317712
F        0.000000    0.000000   -1.659163
 }

set basis Def2-TZVPPD

energy("M11-D3BJ")
--------------------------------------------------------------------------

    Molecular point group: c2v

    Geometry (in Angstrom), charge = 0, multiplicity = 1:

       Center              X                  Y                   Z               Mass
    ------------   -----------------  -----------------  -----------------  -----------------
         AG           0.000000000000     0.000000000000     0.298303619952   106.905091600000
         F            0.000000000000     0.000000000000    -1.678571380048    18.998403162730

  Charge       = 0
  Multiplicity = 1
  Basis Set: DEF2-TZVPPD
    Blend: DEF2-TZVPPD
  Basis Set: (DEF2-TZVPPD AUX)
    Blend: DEF2-TZVPP-JKFIT

    Orbital Energies [Eh]
    ---------------------

    Doubly Occupied:

       1A1   -24.881930     2A1    -3.904249     3A1    -2.500424
       1B2    -2.497378     1B1    -2.497378     4A1    -1.140726
       5A1    -0.519344     2B2    -0.500759     2B1    -0.500759
       6A1    -0.485754     1A2    -0.485744     3B2    -0.403348
       3B1    -0.403348     7A1    -0.394138

  @DF-RKS Final Energy:  -246.72095177565086

   => Energetics <=

    Nuclear Repulsion Energy =             45.7739123741106511
    One-Electron Energy =                -492.9324153704290552
    Two-Electron Energy =                 212.7859884744513295
    DFT Exchange-Correlation Energy =     -12.3483639537837675
    Empirical Dispersion Energy =          -0.0000733000000000
    VV10 Nonlocal Energy =                  0.0000000000000000
    Total Energy =                       -246.7209517756508603

  Dipole Moment: [D]
     X:     0.0000      Y:     0.0000      Z:     6.3774     Total:     6.3774

*** Psi4 exiting successfully. Buy a developer a beer!
