                               Psi4 1.3.2 release

  ==> Input File <==

--------------------------------------------------------------------------
memory 144 GB

molecule {
0 1
Ag       0.000000    0.000000    1.261821
Ag       0.000000    0.000000   -1.261821
 }

set basis Def2-TZVPPD

energy("M11-D3BJ")
--------------------------------------------------------------------------

    Molecular point group: d2h

    Geometry (in Angstrom), charge = 0, multiplicity = 1:

       Center              X                  Y                   Z               Mass
    ------------   -----------------  -----------------  -----------------  -----------------
         AG           0.000000000000     0.000000000000     1.261821000000   106.905091600000
         AG           0.000000000000     0.000000000000    -1.261821000000   106.905091600000

  Charge       = 0
  Multiplicity = 1
  Basis Set: DEF2-TZVPPD
    Blend: DEF2-TZVPPD
  Basis Set: (DEF2-TZVPPD AUX)
    Blend: DEF2-TZVPP-JKFIT

    Orbital Energies [Eh]
    ---------------------

    Doubly Occupied:

       1Ag    -3.851858     1B1u   -3.851113     2Ag    -2.451131
       1B3u   -2.443187     1B2u   -2.443187     2B1u   -2.442630
       1B2g   -2.442425     1B3g   -2.442425     3Ag    -0.472647
       2B3u   -0.455880     2B2u   -0.455880     1B1g   -0.433611
       4Ag    -0.433597     1Au    -0.425340     3B1u   -0.425326
       2B2g   -0.410598     2B3g   -0.410598     4B1u   -0.402250
       5Ag    -0.260485

  @DF-RKS Final Energy:  -293.70293203853890

   => Energetics <=

    Nuclear Repulsion Energy =             75.6973346662759781
    One-Electron Energy =                -674.2661859364560542
    Two-Electron Energy =                 318.6142075055284977
    DFT Exchange-Correlation Energy =     -13.7474348238873922
    Empirical Dispersion Energy =          -0.0008534500000000
    VV10 Nonlocal Energy =                  0.0000000000000000
    Total Energy =                       -293.7029320385389610

  Dipole Moment: [D]
     X:     0.0000      Y:     0.0000      Z:     0.0000     Total:     0.0000

*** Psi4 exiting successfully. Buy a developer a beer!
