                               Psi4 1.3.2 release

  ==> Input File <==

--------------------------------------------------------------------------
memory 144 GB

molecule {
0 2
Ag       0.000000    1.533951   -0.000000
Ag       1.328441   -0.766976    0.000000
Ag      -1.328441   -0.766976   -0.000000
 }

set reference uks
set basis Def2-TZVPPD

energy("M11-D3BJ")
--------------------------------------------------------------------------

    Molecular point group: c2v

    Geometry (in Angstrom), charge = 0, multiplicity = 2:

       Center              X                  Y                   Z               Mass
    ------------   -----------------  -----------------  -----------------  -----------------
         AG           0.000000000000    -0.000000000000     1.533951333333   106.905091600000
         AG           1.328441000000     0.000000000000    -0.766975666667   106.905091600000
         AG          -1.328441000000    -0.000000000000    -0.766975666667   106.905091600000

  Charge       = 0
  Multiplicity = 2
  Basis Set: DEF2-TZVPPD
    Blend: DEF2-TZVPPD
  Basis Set: (DEF2-TZVPPD AUX)
    Blend: DEF2-TZVPP-JKFIT

    Orbital Energies [Eh]
    ---------------------

    Alpha Occupied:

       1A1    -3.873934     1B1    -3.873560     2A1    -3.851879
       3A1    -2.471343     4A1    -2.466639     2B1    -2.466557
       3B1    -2.465637     1B2    -2.465121     1A2    -2.464674
       5A1    -2.444499     4B1    -2.444259     2B2    -2.441758
       6A1    -0.497143     7A1    -0.484526     3B2    -0.477314
       5B1    -0.475058     8A1    -0.461957     4B2    -0.461090
       2A2    -0.455292     6B1    -0.441630     3A2    -0.437408
       7B1    -0.433642     9A1    -0.425562     4A2    -0.423922
       5B2    -0.419896    10A1    -0.418769     8B1    -0.404351
      11A1    -0.316080    12A1    -0.181605

    Alpha Virtual:

       9B1    -0.029842     6B2     0.024725    13A1     0.031689
      14A1     0.050451    10B1     0.060625     5A2     0.074721
       7B2     0.090074    11B1     0.093369    15A1     0.122375
      12B1     0.129313    16A1     0.163223    13B1     0.191534
      17A1     0.204914     8B2     0.220687    18A1     0.221435
      19A1     0.246229    14B1     0.249023     6A2     0.293191
       9B2     0.304438    15B1     0.379688    16B1     0.448493
      20A1     0.448844    21A1     0.452862    10B2     0.481424
       7A2     0.486828    11B2     0.497931    17B1     0.579320
      22A1     0.580903     8A2     0.615216    23A1     0.639674
       9A2     0.665543    12B2     0.672072    24A1     0.683080
      18B1     0.686011    19B1     0.752458    25A1     0.758211
      20B1     0.802005    26A1     1.591691    21B1     1.595773
      27A1     1.629172    28A1     1.644444    13B2     1.662313
      14B2     1.673482    10A2     1.673858    29A1     1.684846
      22B1     1.685244    11A2     1.695209    15B2     1.697115
      16B2     1.701340    23B1     1.710665    12A2     1.711901
      30A1     1.718060    17B2     1.718836    24B1     1.727092
      18B2     1.731541    25B1     1.742757    31A1     1.746170
      13A2     1.770620    26B1     1.775930    32A1     1.802544
      27B1     1.807512    33A1     1.816612    14A2     1.830295
      19B2     1.837217    34A1     1.856627    28B1     1.857100
      29B1     2.011629    35A1     2.054396    36A1     2.155693
      20B2     2.160511    15A2     2.168709    30B1     2.190122
      37A1     2.198697    21B2     2.200226    16A2     2.212175
      31B1     2.221358    38A1     2.221773    17A2     2.234183
      22B2     2.248610    32B1     2.333973    39A1     2.339804
      33B1     2.369791    40A1     2.468865    34B1     2.634204
      41A1     2.639846    42A1     4.840420    43A1     4.851651
      35B1     4.856137    23B2     4.859385    18A2     4.869863
      24B2     4.870789    44A1     4.876805    25B2     4.885108
      45A1     4.887770    36B1     4.892241    19A2     4.894165
      37B1     4.914100    26B2     4.914467    20A2     4.947120
      38B1     4.964410    21A2     4.969881    27B2     4.974963
      46A1     4.977102    39B1     5.118812    47A1     5.123344
      40B1     5.139864    28B2     5.653985    48A1     5.654001
      22A2     5.654077    41B1     5.654842    49A1     5.655075
      29B2     5.655635    23A2     5.655782    42B1     5.655900
      50A1     5.656183    30B2     5.656723    43B1     5.657186
      24A2     5.657272    31B2     5.657584    25A2     5.657716
      51A1     5.657839    44B1     5.657955    45B1     5.662197
      52A1     5.662919    53A1     5.678883    32B2     5.679955
      26A2     5.680590    33B2     5.681926    46B1     5.682273
      54A1     5.682505    27A2     5.683023    55A1     5.685397
      47B1     5.686093    56A1    33.339951    48B1    33.666074
      57A1    33.679730    58A1   110.513457    49B1   110.614387
      59A1   110.629746

    Beta Occupied:

       1A1    -3.873079     1B1    -3.872708     2A1    -3.848727
       3A1    -2.470759     2B1    -2.466813     4A1    -2.465425
       1B2    -2.464677     1A2    -2.464253     3B1    -2.463682
       5A1    -2.443258     4B1    -2.441167     2B2    -2.439007
       6A1    -0.496678     7A1    -0.482404     3B2    -0.477002
       5B1    -0.472253     8A1    -0.459871     4B2    -0.459731
       2A2    -0.454166     6B1    -0.440318     3A2    -0.436866
       7B1    -0.433487     9A1    -0.422417     4A2    -0.421193
       5B2    -0.416741    10A1    -0.414854     8B1    -0.399847
      11A1    -0.299000

    Beta Virtual:

       9B1    -0.033994    12A1    -0.014864    13A1     0.013275
       6B2     0.016881    10B1     0.043162    14A1     0.047302
       5A2     0.055028     7B2     0.063714    11B1     0.078831
      15A1     0.086738    12B1     0.086846    16A1     0.150226
      13B1     0.174677    17A1     0.185465     8B2     0.210876
      18A1     0.214764    14B1     0.243377    19A1     0.243688
       6A2     0.290084     9B2     0.305388    15B1     0.383853
      16B1     0.448445    20A1     0.452761    21A1     0.461003
      10B2     0.484660     7A2     0.493602    11B2     0.503699
      17B1     0.584733    22A1     0.589325     8A2     0.622860
      23A1     0.637502     9A2     0.667060    12B2     0.678600
      18B1     0.688868    24A1     0.689678    19B1     0.752333
      25A1     0.762111    20B1     0.805841    26A1     1.592754
      21B1     1.597976    27A1     1.631122    28A1     1.646504
      13B2     1.662236    14B2     1.674518    10A2     1.675028
      22B1     1.684479    29A1     1.684753    11A2     1.695036
      15B2     1.696606    16B2     1.702172    23B1     1.711417
      12A2     1.712929    30A1     1.718968    17B2     1.721242
      24B1     1.728017    18B2     1.734072    25B1     1.743769
      31A1     1.748287    13A2     1.771831    26B1     1.776916
      32A1     1.803933    27B1     1.808503    33A1     1.820545
      14A2     1.830684    19B2     1.837963    28B1     1.856528
      34A1     1.857369    29B1     2.013705    35A1     2.054616
      36A1     2.155505    20B2     2.161020    15A2     2.166740
      30B1     2.189241    21B2     2.198078    37A1     2.198348
      16A2     2.211057    38A1     2.221036    31B1     2.221932
      17A2     2.232324    22B2     2.246527    32B1     2.332575
      39A1     2.339474    33B1     2.368861    40A1     2.467383
      34B1     2.634796    41A1     2.645222    42A1     4.840291
      43A1     4.851361    35B1     4.855954    23B2     4.858995
      18A2     4.869515    24B2     4.870575    44A1     4.876185
      25B2     4.884729    45A1     4.887541    36B1     4.892003
      19A2     4.893882    37B1     4.913036    26B2     4.913329
      20A2     4.946571    38B1     4.964215    21A2     4.969227
      27B2     4.974642    46A1     4.977055    39B1     5.118046
      47A1     5.123908    40B1     5.140282    28B2     5.654345
      48A1     5.654725    49A1     5.655167    22A2     5.655536
      29B2     5.655751    41B1     5.656032    23A2     5.656683
      24A2     5.656805    42B1     5.656827    50A1     5.657300
      30B2     5.657592    43B1     5.657896    51A1     5.658296
      25A2     5.658549    31B2     5.658940    44B1     5.658978
      45B1     5.662623    52A1     5.664697    32B2     5.683528
      53A1     5.683843    54A1     5.684422    26A2     5.684561
      27A2     5.684826    46B1     5.685314    33B2     5.686389
      55A1     5.689322    47B1     5.690760    56A1    33.341048
      48B1    33.666646    57A1    33.681764    58A1   110.513480
      49B1   110.614412    59A1   110.629806

    Final Occupation by Irrep:
             A1    A2    B1    B2
    DOCC [    11,    4,    8,    5 ]
    SOCC [     1,    0,    0,    0 ]

  @DF-UKS Final Energy:  -440.54933753752607

   => Energetics <=

    Nuclear Repulsion Energy =            215.7035793725837323
    One-Electron Energy =               -1214.9035026983801799
    Two-Electron Energy =                 579.2784079665010495
    DFT Exchange-Correlation Energy =     -20.6252947682305319
    Empirical Dispersion Energy =          -0.0025274100000000
    VV10 Nonlocal Energy =                  0.0000000000000000
    Total Energy =                       -440.5493375375260143

  UHF NO Occupations:
  HONO-2 :    8 B1 1.9992620
  HONO-1 :   11 A1 1.9913389
  HONO-0 :   12 A1 1.0000000
  LUNO+0 :   13 A1 0.0086611
  LUNO+1 :    9 B1 0.0007380
  LUNO+2 :   10 B1 0.0001550
  LUNO+3 :    6 B2 0.0001138

Computation Completed

Properties will be evaluated at   0.000000,   0.000000,   0.000000 [a0]

Properties computed using the SCF density matrix

  Nuclear Dipole Moment: [e a0]
     X:    -0.0000      Y:    -0.0000      Z:     0.0000

  Electronic Dipole Moment: [e a0]
     X:     0.0000      Y:     0.0000      Z:    -0.5070

  Dipole Moment: [e a0]
     X:    -0.0000      Y:    -0.0000      Z:    -0.5070     Total:     0.5070

  Dipole Moment: [D]
     X:    -0.0000      Y:    -0.0000      Z:    -1.2886     Total:     1.2886

*** tstop() called on bp1-compute00157.data.bp.acrc.priv at Thu Oct 28 15:26:53 2021
Module time:
	user time   =     355.79 seconds =       5.93 minutes
	system time =      23.32 seconds =       0.39 minutes
	total time  =         20 seconds =       0.33 minutes
Total time:
	user time   =     355.79 seconds =       5.93 minutes
	system time =      23.32 seconds =       0.39 minutes
	total time  =         20 seconds =       0.33 minutes

    Psi4 stopped on: Thursday, 28 October 2021 03:26PM
    Psi4 wall time for execution: 0:00:20.46

*** Psi4 exiting successfully. Buy a developer a beer!
