                               Psi4 1.3.2 release

  ==> Input File <==

--------------------------------------------------------------------------
memory 144 GB

molecule {
1 1
Ag       0.000000    0.000000    0.000000
Ag       0.000000    0.000000    2.629319
Ag       0.000000    0.000000   -2.629319
 }

set basis Def2-TZVPPD

energy("M11-D3BJ")
--------------------------------------------------------------------------

    Molecular point group: d2h

    Geometry (in Angstrom), charge = 1, multiplicity = 1:

       Center              X                  Y                   Z               Mass
    ------------   -----------------  -----------------  -----------------  -----------------
         AG           0.000000000000     0.000000000000     0.000000000000   106.905091600000
         AG           0.000000000000     0.000000000000     2.629319000000   106.905091600000
         AG           0.000000000000     0.000000000000    -2.629319000000   106.905091600000

  Charge       = 1
  Multiplicity = 1
  Basis Set: DEF2-TZVPPD
    Blend: DEF2-TZVPPD
  Basis Set: (DEF2-TZVPPD AUX)
    Blend: DEF2-TZVPP-JKFIT

    Orbital Energies [Eh]
    ---------------------

    Doubly Occupied:

       1B1u   -4.068637     1Ag    -4.068630     2Ag    -4.016562
       2B1u   -2.664988     3Ag    -2.664722     1B3u   -2.662381
       1B2u   -2.662381     1B2g   -2.662356     1B3g   -2.662356
       3B1u   -2.614071     2B3u   -2.605838     2B2u   -2.605838
       4Ag    -0.680167     2B2g   -0.660625     2B3g   -0.660625
       4B1u   -0.654105     3B3u   -0.652349     3B2u   -0.652349
       1B1g   -0.649326     5Ag    -0.649319     1Au    -0.649050
       5B1u   -0.649044     2B1g   -0.590347     6Ag    -0.590344
       3B2g   -0.590341     3B3g   -0.590341     7Ag    -0.583069
       8Ag    -0.426622

  @DF-RKS Final Energy:  -440.30954411353196

   => Energetics <=

    Nuclear Repulsion Energy =            181.6373108891218351
    One-Electron Energy =               -1136.1506343144310449
    Two-Electron Energy =                 534.7813577612049585
    DFT Exchange-Correlation Energy =     -20.5754187994277089
    Empirical Dispersion Energy =          -0.0021596500000000
    VV10 Nonlocal Energy =                  0.0000000000000000
    Total Energy =                       -440.3095441135319561

  Dipole Moment: [D]
     X:     0.0000      Y:     0.0000      Z:     0.0000     Total:     0.0000

*** Psi4 exiting successfully. Buy a developer a beer!
