                               Psi4 1.3.2 release

  ==> Input File <==

--------------------------------------------------------------------------
memory 144 GB

molecule {
0 2
Ag       0.000000    0.000000    0.000000
Ag       0.000000    0.000000    2.592532
Ag       0.000000    0.000000   -2.592532
 }

set reference uks
set basis Def2-TZVPPD

energy("M11-D3BJ")
--------------------------------------------------------------------------

    Molecular point group: d2h

    Geometry (in Angstrom), charge = 0, multiplicity = 2:

       Center              X                  Y                   Z               Mass
    ------------   -----------------  -----------------  -----------------  -----------------
         AG           0.000000000000     0.000000000000     0.000000000000   106.905091600000
         AG           0.000000000000     0.000000000000     2.592532000000   106.905091600000
         AG           0.000000000000     0.000000000000    -2.592532000000   106.905091600000

  Charge       = 0
  Multiplicity = 2
  Basis Set: DEF2-TZVPPD
    Blend: DEF2-TZVPPD
  Basis Set: (DEF2-TZVPPD AUX)
    Blend: DEF2-TZVPP-JKFIT

    Orbital Energies [Eh]
    ---------------------

    Alpha Occupied:

       1B1u   -3.867840     1Ag    -3.867836     2Ag    -3.847544
       2B1u   -2.463681     3Ag    -2.462572     1B2u   -2.459215
       1B3g   -2.459215     1B3u   -2.459215     1B2g   -2.459215
       3B1u   -2.443639     2B2u   -2.437556     2B3u   -2.437556
       4Ag    -0.492311     2B3g   -0.468556     2B2g   -0.468556
       4B1u   -0.452726     3B2u   -0.451325     3B3u   -0.451325
       1B1g   -0.447742     5Ag    -0.447735     1Au    -0.446835
       5B1u   -0.446828     2B1g   -0.422442     6Ag    -0.422434
       3B3g   -0.410032     3B2g   -0.410032     7Ag    -0.400387
       8Ag    -0.286321     6B1u   -0.241354

    Alpha Virtual:

       9Ag    -0.001279     4B2u    0.031949     4B3u    0.031949
       7B1u    0.051722     4B3g    0.060246     4B2g    0.060246
       5B2u    0.113511     5B3u    0.113511    10Ag     0.114917
       8B1u    0.127098    11Ag     0.145359     9B1u    0.189701
      12Ag     0.213455     6B2u    0.229498     6B3u    0.229498
       5B3g    0.265388     5B2g    0.265389    10B1u    0.307399
       7B2u    0.331493     7B3u    0.331493    13Ag     0.379769
      14Ag     0.455363     3B1g    0.455372    11B1u    0.491631
       2Au     0.491637     6B3g    0.495024     6B2g    0.495024
      12B1u    0.534333     4B1g    0.578433    15Ag     0.578444
       8B2u    0.587352     8B3u    0.587352    16Ag     0.691517
      13B1u    0.763293     7B3g    0.768176     7B2g    0.768176
      17Ag     0.831902    14B1u    1.548596     9B2u    1.652775
       9B3u    1.652776    10B2u    1.692976    10B3u    1.692976
       8B3g    1.696188     8B2g    1.696189     3Au     1.700045
      15B1u    1.700081    18Ag     1.703666    11B2u    1.709526
      11B3u    1.709526     9B3g    1.709575     9B2g    1.709575
       5B1g    1.710876    19Ag     1.710912    12B2u    1.730595
      12B3u    1.730595    13B2u    1.736557    13B3u    1.736557
       4Au     1.743081    16B1u    1.743131    17B1u    1.750316
      20Ag     1.769961    10B3g    1.783496    10B2g    1.783496
      14B2u    1.856149    14B3u    1.856149    18B1u    1.874169
      21Ag     1.979040    19B1u    2.031146    22Ag     2.144764
       6B1g    2.144805    20B1u    2.154775     5Au     2.154794
      11B3g    2.169783    11B2g    2.169783    23Ag     2.199706
       7B1g    2.199776    15B2u    2.220347    15B3u    2.220347
      24Ag     2.248410    21B1u    2.287034    12B3g    2.319215
      12B2g    2.319215    22B1u    2.425507    25Ag     2.476690
      26Ag     2.774512    23B1u    4.839067    16B2u    4.850803
      16B3u    4.850804     6Au     4.888859    24B1u    4.889061
      17B2u    4.895354    17B3u    4.895354    13B3g    4.895396
      13B2g    4.895396     8B1g    4.898077    27Ag     4.898262
      18B3u    4.914708    18B2u    4.914708     7Au     4.924052
      25B1u    4.924327    14B3g    4.938368    14B2g    4.938368
      19B2u    5.002800    19B3u    5.002800    28Ag     5.057740
      26B1u    5.213175    27B1u    5.659590    20B2u    5.659823
      20B3u    5.659824    29Ag     5.659936     8Au     5.659956
       9B1g    5.660302    15B2g    5.660703    15B3g    5.660703
      21B2u    5.660837    21B3u    5.660838    16B3g    5.660886
      16B2g    5.660886    30Ag     5.661513    28B1u    5.661513
       9Au     5.661919    10B1g    5.661919    31Ag     5.663427
      29B1u    5.664737    32Ag     5.684283    11B1g    5.684887
      17B2g    5.686280    17B3g    5.686280    18B3g    5.686658
      18B2g    5.686658    33Ag     5.687364    12B1g    5.687953
      34Ag     5.703814    35Ag    33.311616    30B1u   33.457821
      36Ag    33.851179    37Ag   110.507041    31B1u  110.552220
      38Ag   110.689089

    Beta Occupied:

       1B1u   -3.864769     1Ag    -3.864765     2Ag    -3.848238
       2B1u   -2.461458     3Ag    -2.460354     1B2u   -2.457339
       1B3u   -2.457339     1B3g   -2.457310     1B2g   -2.457310
       3B1u   -2.442261     2B2u   -2.438815     2B3u   -2.438815
       4Ag    -0.489756     2B3g   -0.466225     2B2g   -0.466225
       4B1u   -0.450270     3B2u   -0.447990     3B3u   -0.447990
       1B1g   -0.444599     5Ag    -0.444591     1Au    -0.443485
       5B1u   -0.443477     2B1g   -0.423509     6Ag    -0.423501
       3B3g   -0.409438     3B2g   -0.409438     7Ag    -0.397448
       8Ag    -0.255588

    Beta Virtual:

       6B1u   -0.060916     9Ag    -0.015842     7B1u    0.020518
       4B2u    0.021481     4B3u    0.021481     4B3g    0.044266
       4B2g    0.044267     5B2u    0.092148     5B3u    0.092148
       8B1u    0.093438    10Ag     0.102123    11Ag     0.133556
       9B1u    0.191446    12Ag     0.204705     6B3u    0.234917
       6B2u    0.234917     5B2g    0.272114     5B3g    0.272114
      10B1u    0.301267     7B2u    0.330077     7B3u    0.330077
      13Ag     0.382307    14Ag     0.458363     3B1g    0.458370
       6B3g    0.498240     6B2g    0.498240     2Au     0.501222
      11B1u    0.501231    12B1u    0.537619     4B1g    0.579664
      15Ag     0.579678     8B2u    0.591165     8B3u    0.591165
      16Ag     0.694856    13B1u    0.765456     7B3g    0.769390
       7B2g    0.769390    17Ag     0.831861    14B1u    1.549266
       9B2u    1.654295     9B3u    1.654295    10B2u    1.692804
      10B3u    1.692804     8B3g    1.696501     8B2g    1.696501
      18Ag     1.702285     3Au     1.702421    15B1u    1.702465
      11B2u    1.711870    11B3u    1.711870     9B3g    1.711925
       9B2g    1.711925     5B1g    1.713783    19Ag     1.713827
      12B2u    1.729055    12B3u    1.729055    13B2u    1.736071
      13B3u    1.736071     4Au     1.743242    16B1u    1.743290
      17B1u    1.747575    20Ag     1.769784    10B3g    1.784530
      10B2g    1.784531    14B2u    1.855976    14B3u    1.855976
      18B1u    1.875176    21Ag     1.985126    19B1u    2.029774
      22Ag     2.141491     6B1g    2.141562    20B1u    2.149115
       5Au     2.149187    11B3g    2.166980    11B2g    2.166980
      23Ag     2.199008     7B1g    2.199072    15B2u    2.216725
      15B3u    2.216725    24Ag     2.247577    21B1u    2.285407
      12B3g    2.318677    12B2g    2.318678    22B1u    2.430337
      25Ag     2.474578    26Ag     2.774757    23B1u    4.837984
      16B2u    4.849914    16B3u    4.849914     6Au     4.888003
      24B1u    4.888207    17B2u    4.893489    17B3u    4.893489
      13B3g    4.893527    13B2g    4.893527     8B1g    4.896950
      27Ag     4.897138    18B3u    4.915422    18B2u    4.915422
       7Au     4.924020    25B1u    4.924295    14B3g    4.936362
      14B2g    4.936362    19B2u    5.001995    19B3u    5.001995
      28Ag     5.055101    26B1u    5.211286    20B2u    5.663161
      20B3u    5.663161    27B1u    5.663351    29Ag     5.663699
       8Au     5.663751    15B3g    5.663997    15B2g    5.663997
       9B1g    5.664099    21B2u    5.665067    21B3u    5.665067
      16B3g    5.665070    16B2g    5.665070    30Ag     5.666023
      28B1u    5.666024    31Ag     5.666235    10B1g    5.666439
       9Au     5.666439    29B1u    5.667847    32Ag     5.682717
      11B1g    5.683316    17B2g    5.684885    17B3g    5.684885
      18B3g    5.685184    18B2g    5.685184    33Ag     5.686697
      12B1g    5.687283    34Ag     5.702418    35Ag    33.313985
      30B1u   33.460838    36Ag    33.850980    37Ag   110.507419
      31B1u  110.552644    38Ag   110.689285

    Final Occupation by Irrep:
             Ag   B1g   B2g   B3g    Au   B1u   B2u   B3u
    DOCC [     8,    2,    3,    3,    1,    5,    3,    3 ]
    SOCC [     0,    0,    0,    0,    0,    1,    0,    0 ]

  @DF-UKS Final Energy:  -440.54597665133952

   => Energetics <=

    Nuclear Repulsion Energy =            184.2146722314999465
    One-Electron Energy =               -1152.2246718892588433
    Two-Electron Energy =                 548.0827170607445851
    DFT Exchange-Correlation Energy =     -20.6165131443251326
    Empirical Dispersion Energy =          -0.0021809100000000
    VV10 Nonlocal Energy =                  0.0000000000000000
    Total Energy =                       -440.5459766513395152

  UHF NO Occupations:
  HONO-2 :    5B1u 1.9999430
  HONO-1 :    8 Ag 1.9687411
  HONO-0 :    6B1u 1.0000000
  LUNO+0 :    9 Ag 0.0312589
  LUNO+1 :    7B1u 0.0000570
  LUNO+2 :    4B3g 0.0000379
  LUNO+3 :    4B2g 0.0000379

Computation Completed

Properties will be evaluated at   0.000000,   0.000000,   0.000000 [a0]

Properties computed using the SCF density matrix

  Nuclear Dipole Moment: [e a0]
     X:     0.0000      Y:     0.0000      Z:     0.0000

  Electronic Dipole Moment: [e a0]
     X:     0.0000      Y:     0.0000      Z:     0.0000

  Dipole Moment: [e a0]
     X:     0.0000      Y:     0.0000      Z:     0.0000     Total:     0.0000

  Dipole Moment: [D]
     X:     0.0000      Y:     0.0000      Z:     0.0000     Total:     0.0000

*** tstop() called on bp1-compute00162.data.bp.acrc.priv at Thu Oct 28 15:26:58 2021
Module time:
	user time   =     313.45 seconds =       5.22 minutes
	system time =      17.02 seconds =       0.28 minutes
	total time  =         18 seconds =       0.30 minutes
Total time:
	user time   =     313.45 seconds =       5.22 minutes
	system time =      17.02 seconds =       0.28 minutes
	total time  =         18 seconds =       0.30 minutes

    Psi4 stopped on: Thursday, 28 October 2021 03:26PM
    Psi4 wall time for execution: 0:00:18.47

*** Psi4 exiting successfully. Buy a developer a beer!
