                               Psi4 1.3.2 release

  ==> Input File <==

--------------------------------------------------------------------------
memory 144 GB

molecule {
1 1
Ag       0.000000    1.529877    0.000000
Ag       1.324912   -0.764938    0.000000
Ag      -1.324912   -0.764938    0.000000
 }

set basis Def2-TZVPPD

energy("M11-D3BJ")
--------------------------------------------------------------------------

    Molecular point group: c2v

    Geometry (in Angstrom), charge = 1, multiplicity = 1:

       Center              X                  Y                   Z               Mass
    ------------   -----------------  -----------------  -----------------  -----------------
         AG           0.000000000000     0.000000000000     1.529876666667   106.905091600000
         AG           1.324912000000     0.000000000000    -0.764938333333   106.905091600000
         AG          -1.324912000000    -0.000000000000    -0.764938333333   106.905091600000

  Charge       = 1
  Multiplicity = 1
  Basis Set: DEF2-TZVPPD
    Blend: DEF2-TZVPPD
  Basis Set: (DEF2-TZVPPD AUX)
    Blend: DEF2-TZVPP-JKFIT

    Orbital Energies [Eh]
    ---------------------

    Doubly Occupied:

       1A1    -4.058295     2A1    -4.057721     1B1    -4.057718
       3A1    -2.657248     2B1    -2.653577     4A1    -2.653576
       3B1    -2.649823     5A1    -2.649821     4B1    -2.649796
       1B2    -2.649397     1A2    -2.648745     2B2    -2.648743
       6A1    -0.688857     5B1    -0.670765     7A1    -0.670762
       3B2    -0.666638     8A1    -0.650707     4B2    -0.647577
       2A2    -0.647562     9A1    -0.627231     6B1    -0.627225
       3A2    -0.624302     5B2    -0.619221     4A2    -0.619197
       7B1    -0.617835    10A1    -0.617823     8B1    -0.596702
      11A1    -0.485696

  @DF-RKS Final Energy:  -440.37030790431464

   => Energetics <=

    Nuclear Repulsion Energy =            216.2781024753185477
    One-Electron Energy =               -1205.1090822231280981
    Two-Electron Energy =                 569.0571292881355703
    DFT Exchange-Correlation Energy =     -20.5939297346406001
    Empirical Dispersion Energy =          -0.0025277100000000
    VV10 Nonlocal Energy =                  0.0000000000000000
    Total Energy =                       -440.3703079043145863

  Dipole Moment: [D]
     X:     0.0000      Y:     0.0000      Z:     0.0001     Total:     0.0001

*** Psi4 exiting successfully. Buy a developer a beer!
