                               Psi4 1.4.1 release

  ==> Input File <==

--------------------------------------------------------------------------
memory 144 GB

molecule {
2 2
Ag       0.000000    1.604405   -0.611776
Ag       1.389456   -0.802203   -0.611776
Ag      -1.389456   -0.802203   -0.611776
Ag       0.000000    0.000000    1.871824
H        0.000000    0.000000   -1.715373
 }

set reference uks
set basis Def2-TZVPPD

energy("M11-D3BJ")
--------------------------------------------------------------------------

    Molecular point group: cs

    Geometry (in Angstrom), charge = 2, multiplicity = 2:

       Center              X                  Y                   Z               Mass
    ------------   -----------------  -----------------  -----------------  -----------------
         AG          -1.604405249412     0.616845224138     0.000000000000   106.905091600000
         AG           0.802202750588     0.616845224138     1.389456000000   106.905091600000
         AG           0.802202750588     0.616845224138    -1.389456000000   106.905091600000
         AG          -0.000000249412    -1.866754775862     0.000000000000   106.905091600000
         H           -0.000000249412     1.720442224138     0.000000000000     1.007825032230

  Charge       = 2
  Multiplicity = 2
  Basis Set: DEF2-TZVPPD
    Blend: DEF2-TZVPPD
  Basis Set: (DEF2-TZVPPD AUX)
    Blend: DEF2-UNIVERSAL-JKFIT

    Orbital Energies [Eh]
    ---------------------

    Alpha Occupied:

       1Ap    -4.255062     2Ap    -4.254785     1App   -4.254776
       3Ap    -4.229280     4Ap    -2.853620     5Ap    -2.850593
       2App   -2.850586     6Ap    -2.848768     7Ap    -2.848377
       3App   -2.848370     4App   -2.847350     8Ap    -2.847341
       5App   -2.846420     9Ap    -2.824131    10Ap    -2.821848
       6App   -2.821847    11Ap    -0.930165    12Ap    -0.878142
       7App   -0.860918    13Ap    -0.860895     8App   -0.849085
      14Ap    -0.849082    15Ap    -0.846972    16Ap    -0.833999
       9App   -0.833998    17Ap    -0.826045    10App   -0.826038
      11App   -0.823381    18Ap    -0.819759    12App   -0.819744
      19Ap    -0.809654    20Ap    -0.806727    13App   -0.806720
      14App   -0.800280    21Ap    -0.795922    15App   -0.795914
      22Ap    -0.763696    23Ap    -0.603872

    Alpha Virtual:

      16App   -0.354695    24Ap    -0.354693    25Ap    -0.296368
      26Ap    -0.264180    17App   -0.245511    27Ap    -0.245510
      18App   -0.241473    28Ap    -0.241470    29Ap    -0.184722
      19App   -0.174664    30Ap    -0.174660    20App   -0.159094
      31Ap    -0.153915    21App   -0.153909    32Ap    -0.147137
      33Ap    -0.117740    34Ap    -0.094614    35Ap    -0.083856
      22App   -0.083854    36Ap    -0.076472    23App   -0.071516
      37Ap    -0.071512    38Ap    -0.056300    24App   -0.056279
      39Ap    -0.035950    40Ap     0.014203    25App    0.014219
      26App    0.046751    41Ap     0.055473    42Ap     0.058831
      27App    0.058841    43Ap     0.072014    28App    0.104802
      44Ap     0.104814    29App    0.158777    45Ap     0.158804
      46Ap     0.216598    47Ap     0.232170    30App    0.232188
      31App    0.264681    48Ap     0.281095    49Ap     0.305466
      50Ap     0.333505    32App    0.333514    33App    0.336491
      51Ap     0.336496    34App    0.360890    52Ap     0.361004
      53Ap     0.387716    35App    0.404919    54Ap     0.404924
      36App    0.442801    55Ap     0.442844    37App    0.450511
      56Ap     0.457986    38App    0.714263    57Ap     0.714348
      58Ap     0.798744    39App    1.238131    59Ap     1.238166
      60Ap     1.285776    61Ap     1.287812    62Ap     1.291009
      40App    1.291024    41App    1.297734    63Ap     1.297741
      64Ap     1.300025    42App    1.311549    65Ap     1.311575
      43App    1.317979    44App    1.329330    66Ap     1.329370
      67Ap     1.335013    45App    1.335022    46App    1.340719
      68Ap     1.341527    69Ap     1.345913    70Ap     1.346625
      47App    1.346628    48App    1.356509    49App    1.362063
      71Ap     1.362066    72Ap     1.369247    50App    1.369285
      51App    1.377647    73Ap     1.405942    52App    1.439941
      74Ap     1.439959    75Ap     1.448005    53App    1.472213
      76Ap     1.472216    77Ap     1.482702    54App    1.538500
      78Ap     1.538551    79Ap     1.551034    55App    1.609281
      80Ap     1.625457    56App    1.625474    57App    1.806096
      81Ap     1.806182    82Ap     1.818689    58App    1.827738
      83Ap     1.832113    59App    1.832119    84Ap     1.872641
      85Ap     1.874388    60App    1.874414    86Ap     1.893126
      61App    1.893184    87Ap     1.896159    88Ap     1.903627
      62App    1.903679    89Ap     1.921956    63App    1.922029
      64App    1.925522    90Ap     1.940828    91Ap     1.990191
      65App    1.990258    92Ap     2.245002    93Ap     2.462238
      66App    2.508082    94Ap     2.508191    95Ap     2.879262
      96Ap     2.991029    67App    2.991292    97Ap     3.024336
      98Ap     3.299158    68App    3.299228    99Ap     3.813697
      69App    3.814069   100Ap     3.943418   101Ap     4.485997
      70App    4.486030   102Ap     4.502348    71App    4.506501
     103Ap     4.506519    72App    4.509587   104Ap     4.525266
     105Ap     4.527252    73App    4.527288    74App    4.528186
      75App    4.544020   106Ap     4.544058    76App    4.544063
     107Ap     4.549124   108Ap     4.555861    77App    4.555876
     109Ap     4.567164    78App    4.579311   110Ap     4.579418
     111Ap     4.652009    79App    4.652037   112Ap     4.662097
      80App    4.689322   113Ap     4.705505    81App    4.705519
     114Ap     4.852503    82App    4.852875   115Ap     4.902393
      83App    5.267722   116Ap     5.269621    84App    5.269675
      85App    5.269780   117Ap     5.270172   118Ap     5.270360
      86App    5.270494    87App    5.271726   119Ap     5.271742
      88App    5.271986   120Ap     5.272440    89App    5.272445
      90App    5.272684   121Ap     5.273222    91App    5.273405
     122Ap     5.273526    92App    5.274619   123Ap     5.274642
      93App    5.278541   124Ap     5.278549   125Ap     5.280820
      94App    5.283058   126Ap     5.283071   127Ap     5.291919
      95App    5.295960   128Ap     5.296050    96App    5.296217
     129Ap     5.296414   130Ap     5.296815    97App    5.296856
     131Ap     5.297638   132Ap     5.302298    98App    5.302738
     133Ap     5.399017    99App    5.399123   134Ap     5.445434
     135Ap    33.038949   136Ap    33.286035   137Ap    33.437706
     100App   33.437711   138Ap   110.162437   139Ap   110.246412
     140Ap   110.284325   101App  110.284333

    Beta Occupied:

       1Ap    -4.253047     2Ap    -4.252773     1App   -4.252762
       3Ap    -4.226462     4Ap    -2.851044     2App   -2.848696
       5Ap    -2.848696     6Ap    -2.846562     3App   -2.846561
       4App   -2.846158     7Ap    -2.844757     8Ap    -2.844341
       5App   -2.844332     9Ap    -2.821409     6App   -2.820321
      10Ap    -2.820321    11Ap    -0.914270    12Ap    -0.873980
       7App   -0.860615    13Ap    -0.860593     8App   -0.845821
      14Ap    -0.845817    15Ap    -0.844567    16Ap    -0.832583
       9App   -0.832582    10App   -0.822587    17Ap    -0.821265
      11App   -0.821245    18Ap    -0.815679    12App   -0.815675
      19Ap    -0.806234    20Ap    -0.803872    13App   -0.803860
      14App   -0.799675    21Ap    -0.791813    15App   -0.791802
      22Ap    -0.740242

    Beta Virtual:

      23Ap    -0.395099    24Ap    -0.354902    16App   -0.354900
      25Ap    -0.292471    26Ap    -0.274831    27Ap    -0.259151
      17App   -0.259144    18App   -0.256802    28Ap    -0.256793
      29Ap    -0.209214    19App   -0.192115    30Ap    -0.192115
      31Ap    -0.183284    20App   -0.183279    21App   -0.176586
      32Ap    -0.164056    33Ap    -0.138770    34Ap    -0.105054
      35Ap    -0.097275    36Ap    -0.095937    22App   -0.095919
      37Ap    -0.090618    23App   -0.090605    38Ap    -0.076961
      24App   -0.076958    39Ap    -0.055874    40Ap     0.010316
      25App    0.010346    26App    0.040932    41Ap     0.049902
      27App    0.055028    42Ap     0.055030    43Ap     0.073618
      28App    0.100427    44Ap     0.100440    29App    0.153753
      45Ap     0.153794    46Ap     0.213407    47Ap     0.229618
      30App    0.229644    31App    0.262351    48Ap     0.281495
      49Ap     0.306443    50Ap     0.328897    32App    0.328897
      33App    0.332737    51Ap     0.332741    34App    0.356611
      52Ap     0.356708    53Ap     0.386988    54Ap     0.399463
      35App    0.399484    36App    0.441486    55Ap     0.441546
      37App    0.447586    56Ap     0.457013    38App    0.726707
      57Ap     0.726848    58Ap     0.805185    39App    1.239397
      59Ap     1.239425    60Ap     1.287465    61Ap     1.289170
      62Ap     1.292111    40App    1.292112    41App    1.299399
      63Ap     1.299413    64Ap     1.300961    42App    1.311409
      65Ap     1.311440    43App    1.318553    44App    1.329743
      66Ap     1.329790    45App    1.335936    67Ap     1.335939
      46App    1.342652    68Ap     1.343019    69Ap     1.347402
      47App    1.348196    70Ap     1.348199    48App    1.357529
      49App    1.362559    71Ap     1.362568    72Ap     1.370108
      50App    1.370138    51App    1.378139    73Ap     1.404771
      52App    1.440320    74Ap     1.440355    75Ap     1.447043
      53App    1.471380    76Ap     1.471388    77Ap     1.482035
      54App    1.542839    78Ap     1.542902    79Ap     1.551900
      55App    1.608548    80Ap     1.624184    56App    1.624189
      57App    1.805439    81Ap     1.805507    82Ap     1.818263
      58App    1.826667    83Ap     1.828516    59App    1.828595
      84Ap     1.870970    85Ap     1.874432    60App    1.874450
      86Ap     1.892017    61App    1.892066    87Ap     1.894694
      88Ap     1.903678    62App    1.903734    89Ap     1.920109
      63App    1.920177    64App    1.925261    90Ap     1.942879
      91Ap     1.993098    65App    1.993182    92Ap     2.253549
      93Ap     2.464055    66App    2.509147    94Ap     2.509241
      95Ap     2.877588    96Ap     3.044870    67App    3.045280
      97Ap     3.096271    98Ap     3.341993    68App    3.342092
      99Ap     3.872327    69App    3.872689   100Ap     3.982916
     101Ap     4.486491    70App    4.486523   102Ap     4.501932
      71App    4.506728   103Ap     4.506753    72App    4.509835
     104Ap     4.524461   105Ap     4.527503    73App    4.527539
      74App    4.528191   106Ap     4.543711    75App    4.543712
      76App    4.544820   107Ap     4.548094   108Ap     4.555468
      77App    4.555485   109Ap     4.569328    78App    4.583069
     110Ap     4.583182   111Ap     4.651137    79App    4.651145
     112Ap     4.665187    80App    4.688599   113Ap     4.706841
      81App    4.706857   114Ap     4.864524    82App    4.864904
     115Ap     4.905879    83App    5.268974    84App    5.269890
     116Ap     5.269911   117Ap     5.270121    85App    5.270533
     118Ap     5.270619    86App    5.270933    87App    5.271826
     119Ap     5.271856    88App    5.272031   120Ap     5.272131
      89App    5.272318    90App    5.273052   121Ap     5.273102
      91App    5.273392   122Ap     5.273574    92App    5.276465
     123Ap     5.276476    93App    5.279163   124Ap     5.279181
     125Ap     5.281561   126Ap     5.285843    94App    5.285843
     127Ap     5.294652   128Ap     5.299589    95App    5.299833
      96App    5.300068   129Ap     5.300176   130Ap     5.300270
      97App    5.300369   131Ap     5.300943   132Ap     5.305279
      98App    5.305727   133Ap     5.407702    99App    5.407823
     134Ap     5.448111   135Ap    33.040507   136Ap    33.288615
     137Ap    33.437781   100App   33.437786   138Ap   110.162015
     139Ap   110.246725   140Ap   110.283427   101App  110.283434

    Final Occupation by Irrep:
             Ap   App
    DOCC [    22,   15 ]
    SOCC [     1,    0 ]

  @DF-UKS Final Energy:  -587.40242701963916

   => Energetics <=

    Nuclear Repulsion Energy =            418.3509837772567721
    One-Electron Energy =               -1852.5577812222491048
    Two-Electron Energy =                 874.3544723273905674
    DFT Exchange-Correlation Energy =     -27.5448793320373895
    Empirical Dispersion Energy =          -0.0052225700000000
    VV10 Nonlocal Energy =                  0.0000000000000000
    Total Energy =                       -587.4024270196391626

  UHF NO Occupations:
  HONO-2 :   15App 1.9994635
  HONO-1 :   22 Ap 1.9963430
  HONO-0 :   23 Ap 1.0000000
  LUNO+0 :   24 Ap 0.0036570
  LUNO+1 :   16App 0.0005365
  LUNO+2 :   25 Ap 0.0005356
  LUNO+3 :   26 Ap 0.0001813

Computation Completed

Properties will be evaluated at   0.000000,   0.000000,   0.000000 [a0]

Properties computed using the SCF density matrix

  Nuclear Dipole Moment: [e a0]
     X:    -0.0000      Y:     2.6688      Z:     0.0000

  Electronic Dipole Moment: [e a0]
     X:    -0.0002      Y:    -2.7407      Z:     0.0000

  Dipole Moment: [e a0]
     X:    -0.0002      Y:    -0.0718      Z:     0.0000     Total:     0.0718

  Dipole Moment: [D]
     X:    -0.0005      Y:    -0.1826      Z:     0.0000     Total:     0.1826

*** tstop() called on bc4login1.bc4.acrc.priv at Tue Nov  2 14:13:54 2021
Module time:
	user time   =     332.96 seconds =       5.55 minutes
	system time =      10.48 seconds =       0.17 minutes
	total time  =         36 seconds =       0.60 minutes
Total time:
	user time   =     332.96 seconds =       5.55 minutes
	system time =      10.48 seconds =       0.17 minutes
	total time  =         36 seconds =       0.60 minutes

    Psi4 stopped on: Tuesday, 02 November 2021 02:13PM
    Psi4 wall time for execution: 0:00:36.32

*** Psi4 exiting successfully. Buy a developer a beer!
