                               Psi4 1.4.1 release

  ==> Input File <==

--------------------------------------------------------------------------
memory 144 GB

molecule {
2 1
Ag       0.000000    1.593354   -0.403942
Ag       1.379885   -0.796677   -0.403942
Ag      -1.379885   -0.796677   -0.403942
Ag       0.000000    0.000000    1.894943
N        0.000000    0.000000   -3.082630
H        0.808649    0.466874   -3.509356
H       -0.000000   -0.933748   -3.509356
H       -0.808649    0.466874   -3.509356
 }

set basis Def2-TZVPPD

energy("M11-D3BJ")
--------------------------------------------------------------------------

    Molecular point group: cs

    Geometry (in Angstrom), charge = 2, multiplicity = 1:

       Center              X                  Y                   Z               Mass
    ------------   -----------------  -----------------  -----------------  -----------------
         AG          -1.593354000000     0.447239138241     0.000000000000   106.905091600000
         AG           0.796677000000     0.447239138241     1.379885000000   106.905091600000
         AG           0.796677000000     0.447239138241    -1.379885000000   106.905091600000
         AG           0.000000000000    -1.851645861759     0.000000000000   106.905091600000
         N            0.000000000000     3.125927138241     0.000000000000    14.003074004430
         H           -0.466874000000     3.552653138241     0.808649000000     1.007825032230
         H            0.933748000000     3.552653138241     0.000000000000     1.007825032230
         H           -0.466874000000     3.552653138241    -0.808649000000     1.007825032230

  Charge       = 2
  Multiplicity = 1
  Basis Set: DEF2-TZVPPD
    Blend: DEF2-TZVPPD
  Basis Set: (DEF2-TZVPPD AUX)
    Blend: DEF2-UNIVERSAL-JKFIT

    Orbital Energies [Eh]
    ---------------------

    Doubly Occupied:

       1Ap   -14.886619     2Ap    -4.216649     3Ap    -4.216334
       1App   -4.216326     4Ap    -4.209808     5Ap    -2.814695
       2App   -2.811997     6Ap    -2.811997     3App   -2.810039
       7Ap    -2.810033     8Ap    -2.809836     4App   -2.809241
       9Ap    -2.808588     5App   -2.808585    10Ap    -2.804375
       6App   -2.802495    11Ap    -2.802494    12Ap    -1.289312
      13Ap    -0.875306     7App   -0.875301    14Ap    -0.852416
      15Ap    -0.830437     8App   -0.827838    16Ap    -0.827827
      17Ap    -0.820238     9App   -0.820237    18Ap    -0.809999
      19Ap    -0.804026    10App   -0.804022    11App   -0.786767
      20Ap    -0.785959    12App   -0.785950    13App   -0.782467
      21Ap    -0.782465    22Ap    -0.781061    14App   -0.781061
      23Ap    -0.779141    15App   -0.762288    16App   -0.760080
      24Ap    -0.760075    25Ap    -0.725100    26Ap    -0.642318

  @DF-RKS Final Energy:  -643.46469182715452

   => Energetics <=

    Nuclear Repulsion Energy =            537.0150910960845749
    One-Electron Energy =               -2164.9335110931315285
    Two-Electron Energy =                1015.8488247659204262
    DFT Exchange-Correlation Energy =     -31.3890822660281792
    Empirical Dispersion Energy =          -0.0060143300000000
    VV10 Nonlocal Energy =                  0.0000000000000000
    Total Energy =                       -643.4646918271545246

  Dipole Moment: [D]
     X:     0.0002      Y:     3.8550      Z:    -0.0000     Total:     3.8550

*** Psi4 exiting successfully. Buy a developer a beer!
