                               Psi4 1.4.1 release

  ==> Input File <==

--------------------------------------------------------------------------
memory 144 GB

molecule {
2 1
Ag      -0.268639    1.507918    0.000000
Ag       1.705052   -0.492854   -0.000000
Ag      -0.647170   -0.911099    1.379441
Ag      -0.647170   -0.911099   -1.379441
N       -0.647170    3.675657    0.000000
H       -0.250844    4.149729    0.817426
H       -0.250844    4.149729   -0.817426
H       -1.645581    3.906275    0.000000
 }

set basis Def2-TZVPPD

energy("M11-D3BJ")
--------------------------------------------------------------------------

    Molecular point group: cs

    Geometry (in Angstrom), charge = 2, multiplicity = 1:

       Center              X                  Y                   Z               Mass
    ------------   -----------------  -----------------  -----------------  -----------------
         AG          -0.277549184886     1.558553668839     0.000000000000   106.905091600000
         AG           1.696141815114    -0.442218331161     0.000000000000   106.905091600000
         AG          -0.656080184886    -0.860463331161     1.379441000000   106.905091600000
         AG          -0.656080184886    -0.860463331161    -1.379441000000   106.905091600000
         N           -0.656080184886     3.726292668839     0.000000000000    14.003074004430
         H           -0.259754184886     4.200364668839     0.817426000000     1.007825032230
         H           -0.259754184886     4.200364668839    -0.817426000000     1.007825032230
         H           -1.654491184886     3.956910668839     0.000000000000     1.007825032230

  Charge       = 2
  Multiplicity = 1
  Basis Set: DEF2-TZVPPD
    Blend: DEF2-TZVPPD
  Basis Set: (DEF2-TZVPPD AUX)
    Blend: DEF2-UNIVERSAL-JKFIT

    Orbital Energies [Eh]
    ---------------------

    Doubly Occupied:

       1Ap   -14.905264     2Ap    -4.213292     3Ap    -4.212973
       1App   -4.212967     4Ap    -4.196489     5Ap    -2.810999
       2App   -2.808177     6Ap    -2.808175     7Ap    -2.806431
       3App   -2.806250     8Ap    -2.806245     9Ap    -2.805344
       4App   -2.805343     5App   -2.805265    10Ap    -2.791383
      11Ap    -2.788057     6App   -2.788057    12Ap    -1.304358
       7App   -0.893500    13Ap    -0.893497    14Ap    -0.851936
      15Ap    -0.828310     8App   -0.821921    16Ap    -0.821900
      17Ap    -0.811945     9App   -0.811943    18Ap    -0.804612
      19Ap    -0.800067    20Ap    -0.797503    10App   -0.797498
      11App   -0.783083    21Ap    -0.781155    12App   -0.781147
      13App   -0.778099    22Ap    -0.778093    14App   -0.769175
      23Ap    -0.769162    15App   -0.757707    24Ap    -0.749525
      16App   -0.749516    25Ap    -0.702689    26Ap    -0.659434

  @DF-RKS Final Energy:  -643.49690188173463

   => Energetics <=

    Nuclear Repulsion Energy =            527.7252358253977036
    One-Electron Energy =               -2146.7058221494344252
    Two-Electron Energy =                1006.8714994432707499
    DFT Exchange-Correlation Energy =     -31.3819602309686942
    Empirical Dispersion Energy =          -0.0058547700000000
    VV10 Nonlocal Energy =                  0.0000000000000000
    Total Energy =                       -643.4969018817347433

  Dipole Moment: [D]
     X:    -0.7317      Y:     4.1823      Z:    -0.0000     Total:     4.2459

*** Psi4 exiting successfully. Buy a developer a beer!
