                               Psi4 1.4.1 release

  ==> Input File <==

--------------------------------------------------------------------------
memory 144 GB

molecule {
2 1
Ag      -0.000000   -0.000016    1.715553
Ag       0.000000   -1.617524   -0.571836
Ag       1.400774    0.808769   -0.571859
Ag      -1.400774    0.808770   -0.571858
 }

set basis Def2-TZVPPD

energy("M11-D3BJ")
--------------------------------------------------------------------------

    Molecular point group: c1

    Geometry (in Angstrom), charge = 2, multiplicity = 1:

       Center              X                  Y                   Z               Mass
    ------------   -----------------  -----------------  -----------------  -----------------
         AG          -0.000000000000    -0.000015750000     1.715553000000   106.905091600000
         AG          -0.000000000000    -1.617523750000    -0.571836000000   106.905091600000
         AG           1.400774000000     0.808769250000    -0.571859000000   106.905091600000
         AG          -1.400774000000     0.808770250000    -0.571858000000   106.905091600000

  Charge       = 2
  Multiplicity = 1
  Basis Set: DEF2-TZVPPD
    Blend: DEF2-TZVPPD
  Basis Set: (DEF2-TZVPPD AUX)
    Blend: DEF2-UNIVERSAL-JKFIT

    Orbital Energies [Eh]
    ---------------------

    Doubly Occupied:

       1A     -4.240254     2A     -4.239927     3A     -4.239922
       4A     -4.239919     5A     -2.838285     6A     -2.835340
       7A     -2.835338     8A     -2.835336     9A     -2.833897
      10A     -2.833897    11A     -2.832648    12A     -2.832647
      13A     -2.832645    14A     -2.832364    15A     -2.832362
      16A     -2.832359    17A     -0.874787    18A     -0.851237
      19A     -0.851234    20A     -0.851231    21A     -0.844576
      22A     -0.844574    23A     -0.830292    24A     -0.830291
      25A     -0.830281    26A     -0.810970    27A     -0.810968
      28A     -0.810959    29A     -0.808345    30A     -0.808342
      31A     -0.806162    32A     -0.806155    33A     -0.806149
      34A     -0.786901    35A     -0.786898    36A     -0.786895
      37A     -0.687594

  @DF-RKS Final Energy:  -586.86641469219694

   => Energetics <=

    Nuclear Repulsion Energy =            409.1285871246527108
    One-Electron Energy =               -1834.5046971568228855
    Two-Electron Energy =                 865.9323259969012270
    DFT Exchange-Correlation Energy =     -27.4175906469280619
    Empirical Dispersion Energy =          -0.0050400100000000
    VV10 Nonlocal Energy =                  0.0000000000000000
    Total Energy =                       -586.8664146921969405

  Dipole Moment: [D]
     X:    -0.0000      Y:    -0.0003      Z:    -0.0001     Total:     0.0003

*** Psi4 exiting successfully. Buy a developer a beer!
