                               Psi4 1.4.1 release

  ==> Input File <==

--------------------------------------------------------------------------
memory 144 GB

molecule {
2 2
Ag      -0.000000    1.374598    1.108828
Ag      -0.000000   -1.374598    1.108828
Ag      -1.374988    0.000000   -1.132689
Ag       1.374988   -0.000000   -1.132689
H        0.000000    0.000000    2.242952
 }

set reference uks
set basis Def2-TZVPPD

energy("M11-D3BJ")
--------------------------------------------------------------------------

    Molecular point group: c2v

    Geometry (in Angstrom), charge = 2, multiplicity = 2:

       Center              X                  Y                   Z               Mass
    ------------   -----------------  -----------------  -----------------  -----------------
         AG          -0.000000000000     1.374598000000     1.115456639148   106.905091600000
         AG           0.000000000000    -1.374598000000     1.115456639148   106.905091600000
         AG          -1.374988000000    -0.000000000000    -1.126060360852   106.905091600000
         AG           1.374988000000     0.000000000000    -1.126060360852   106.905091600000
         H           -0.000000000000     0.000000000000     2.249580639148     1.007825032230

  Charge       = 2
  Multiplicity = 2
  Basis Set: DEF2-TZVPPD
    Blend: DEF2-TZVPPD
  Basis Set: (DEF2-TZVPPD AUX)
    Blend: DEF2-UNIVERSAL-JKFIT

    Orbital Energies [Eh]
    ---------------------

    Alpha Occupied:

       1A1    -4.252056     1B2    -4.251823     2A1    -4.245024
       1B1    -4.244792     3A1    -2.851371     2B2    -2.848885
       4A1    -2.845959     3B2    -2.844363     5A1    -2.842479
       2B1    -2.841549     1A2    -2.841154     3B1    -2.839103
       6A1    -2.837901     4B2    -2.837834     2A2    -2.837578
       4B1    -2.837496     7A1    -0.914723     8A1    -0.872732
       9A1    -0.856354     5B2    -0.853075     5B1    -0.852429
      10A1    -0.847599     3A2    -0.842147     6B1    -0.837050
       6B2    -0.834775    11A1    -0.824710     7B2    -0.823319
      12A1    -0.819566     7B1    -0.819283     4A2    -0.816353
       8B2    -0.816191     5A2    -0.812904     8B1    -0.810610
       6A2    -0.801546     9B2    -0.801178     9B1    -0.796066
      13A1    -0.748292    14A1    -0.628070

    Alpha Virtual:

      10B2    -0.351763    10B1    -0.351574    15A1    -0.301928
      16A1    -0.264989    11B2    -0.251321    11B1    -0.248399
      17A1    -0.245862     7A2    -0.234888    18A1    -0.182263
      12B1    -0.174422    12B2    -0.171685     8A2    -0.158982
      13B1    -0.157591    13B2    -0.157512    19A1    -0.143749
      20A1    -0.118269    14B2    -0.094363    21A1    -0.092490
      14B1    -0.085019    15B1    -0.074303    15B2    -0.071466
      22A1    -0.070875     9A2    -0.059858    23A1    -0.058535
      24A1    -0.041907    16B1    -0.012075    16B2     0.011016
      10A2     0.034693    17B1     0.049087    25A1     0.066319
      17B2     0.085698    18B1     0.101243    18B2     0.102859
      26A1     0.106727    27A1     0.161007    19B1     0.169801
      19B2     0.173099    11A2     0.223498    28A1     0.236942
      29A1     0.247609    12A2     0.272623    20B2     0.309266
      20B1     0.313046    30A1     0.316874    21B1     0.346163
      13A2     0.351216    31A1     0.351438    21B2     0.352754
      32A1     0.364819    22B1     0.413324    22B2     0.421075
      14A2     0.434786    23B2     0.444870    23B1     0.445794
      33A1     0.477688    24B1     0.609045    34A1     0.751628
      24B2     0.779121    35A1     1.238139    36A1     1.266681
      25B2     1.279954    25B1     1.288692    15A2     1.292353
      37A1     1.300106    26B2     1.302131    16A2     1.302227
      26B1     1.307214    38A1     1.314193    17A2     1.314386
      39A1     1.318791    27B2     1.320677    40A1     1.326966
      18A2     1.327706    27B1     1.328769    28B1     1.336810
      28B2     1.341309    41A1     1.342352    29B1     1.343238
      29B2     1.347306    19A2     1.347463    30B2     1.368231
      20A2     1.370295    30B1     1.373951    31B2     1.388093
      31B1     1.395020    42A1     1.405318    32B1     1.413163
      43A1     1.448998    21A2     1.458847    44A1     1.466695
      33B1     1.466836    32B2     1.471101    45A1     1.503507
      22A2     1.559490    46A1     1.598330    33B2     1.603850
      34B1     1.613928    34B2     1.696016    47A1     1.730695
      35B2     1.816584    48A1     1.819369    23A2     1.823347
      35B1     1.824413    24A2     1.837344    49A1     1.868542
      50A1     1.874104    36B2     1.875390    36B1     1.888462
      25A2     1.895052    37B2     1.900938    51A1     1.908827
      37B1     1.914418    38B2     1.933865    38B1     1.941008
      26A2     1.944848    39B1     1.949781    39B2     2.004046
      52A1     2.010663    53A1     2.247522    40B1     2.343353
      40B2     2.345989    54A1     2.428710    55A1     2.609653
      41B1     3.016176    27A2     3.033924    56A1     3.100540
      57A1     3.410231    41B2     3.477102    42B1     3.553949
      58A1     3.961161    42B2     4.025291    28A2     4.490937
      59A1     4.493429    43B2     4.497833    60A1     4.505264
      43B1     4.505822    44B2     4.509875    61A1     4.510722
      44B1     4.515276    29A2     4.517513    45B1     4.527138
      45B2     4.528682    62A1     4.533834    63A1     4.542107
      30A2     4.545373    46B2     4.552537    46B1     4.558859
      31A2     4.572900    64A1     4.576967    47B1     4.612090
      32A2     4.614498    33A2     4.625931    47B2     4.653997
      48B1     4.675077    49B1     4.713878    48B2     4.716489
      65A1     4.716710    49B2     4.909629    66A1     4.920725
      34A2     5.276249    35A2     5.277610    50B2     5.277694
      67A1     5.277731    50B1     5.277875    68A1     5.277918
      51B2     5.278043    51B1     5.278103    36A2     5.278315
      69A1     5.278432    52B1     5.278644    37A2     5.278834
      53B1     5.278855    52B2     5.278866    70A1     5.279158
      38A2     5.279211    53B2     5.279366    54B2     5.279504
      54B1     5.279649    71A1     5.279847    55B1     5.279933
      72A1     5.280347    39A2     5.280492    55B2     5.281054
      73A1     5.281196    56B1     5.281686    40A2     5.281901
      74A1     5.287563    56B2     5.289178    57B1     5.291927
      57B2     5.292652    41A2     5.305406    58B1     5.327011
      75A1     5.354035    76A1     5.529951    58B2     5.615314
      77A1    32.986022    59B1    33.275316    78A1    33.303417
      59B2    33.337489    79A1   110.143796    60B1   110.238670
      80A1   110.244826    60B2   110.254881

    Beta Occupied:

       1A1    -4.248755     1B2    -4.248529     2A1    -4.243064
       1B1    -4.242835     3A1    -2.845123     2B2    -2.841684
       4A1    -2.841432     2B1    -2.841049     3B2    -2.840743
       1A2    -2.840664     5A1    -2.838896     3B1    -2.837771
       6A1    -2.837451     4B2    -2.836980     2A2    -2.836904
       4B1    -2.835365     7A1    -0.891190     8A1    -0.869718
       9A1    -0.854197     5B1    -0.851125     5B2    -0.850074
      10A1    -0.844863     3A2    -0.840750     6B1    -0.834996
       6B2    -0.830876    11A1    -0.822101     7B2    -0.819127
       7B1    -0.817608    12A1    -0.816736     4A2    -0.815687
       5A2    -0.811672     8B1    -0.809715     8B2    -0.808747
       6A2    -0.800282     9B1    -0.792864     9B2    -0.790912
      13A1    -0.716167

    Beta Virtual:

      14A1    -0.416797    10B2    -0.352414    10B1    -0.346418
      15A1    -0.295054    16A1    -0.275321    11B2    -0.261054
      11B1    -0.255362    17A1    -0.252603     7A2    -0.246938
      18A1    -0.202227    12B2    -0.189863    12B1    -0.181308
      13B2    -0.181281     8A2    -0.173801    13B1    -0.173593
      19A1    -0.159217    20A1    -0.136433    14B2    -0.103154
      14B1    -0.100574    21A1    -0.097657    15B1    -0.087814
      15B2    -0.082200    22A1    -0.081210    23A1    -0.075112
       9A2    -0.066325    24A1    -0.052368    16B1    -0.014732
      16B2     0.007077    10A2     0.032010    17B1     0.043762
      25A1     0.064290    17B2     0.081926    18B2     0.095363
      18B1     0.100578    26A1     0.104503    27A1     0.161085
      19B1     0.165875    19B2     0.167583    11A2     0.221139
      28A1     0.244640    29A1     0.247038    12A2     0.270582
      20B2     0.305372    20B1     0.309499    30A1     0.317816
      21B1     0.342335    31A1     0.348268    13A2     0.348422
      21B2     0.350541    32A1     0.364879    22B1     0.407970
      22B2     0.418114    14A2     0.432520    23B2     0.443920
      23B1     0.445365    33A1     0.477035    24B1     0.624482
      34A1     0.762792    24B2     0.794803    35A1     1.240722
      36A1     1.268980    25B2     1.281307    25B1     1.289028
      15A2     1.295067    37A1     1.301702    16A2     1.302966
      26B2     1.303776    26B1     1.307488    17A2     1.314120
      38A1     1.315251    39A1     1.320470    27B2     1.322213
      40A1     1.328380    18A2     1.329220    27B1     1.330299
      28B1     1.337365    28B2     1.342300    29B1     1.343682
      41A1     1.344805    19A2     1.348198    29B2     1.348572
      30B2     1.368765    20A2     1.371477    30B1     1.371956
      31B2     1.388199    31B1     1.394448    42A1     1.402846
      32B1     1.419775    43A1     1.448455    21A2     1.458121
      33B1     1.465688    44A1     1.466167    32B2     1.472675
      45A1     1.508912    22A2     1.558428    46A1     1.605637
      33B2     1.610023    34B1     1.612537    34B2     1.696862
      47A1     1.731724    35B2     1.813763    48A1     1.816189
      35B1     1.821131    23A2     1.823063    24A2     1.833746
      49A1     1.869289    50A1     1.872819    36B2     1.877072
      36B1     1.886435    25A2     1.893779    37B2     1.908371
      37B1     1.912100    51A1     1.915355    38B2     1.933045
      38B1     1.941990    26A2     1.944299    39B1     1.946898
      39B2     2.008250    52A1     2.015069    53A1     2.253150
      40B2     2.347575    40B1     2.348459    54A1     2.432997
      55A1     2.619646    41B1     3.096083    27A2     3.106992
      56A1     3.172155    57A1     3.472198    41B2     3.520558
      42B1     3.651053    58A1     4.008435    42B2     4.115413
      28A2     4.491951    59A1     4.492781    43B2     4.497708
      43B1     4.504334    60A1     4.504620    61A1     4.509909
      44B2     4.510374    44B1     4.514588    29A2     4.516671
      45B1     4.526391    45B2     4.529090    62A1     4.535229
      63A1     4.542241    30A2     4.543782    46B2     4.553785
      46B1     4.558219    31A2     4.571726    64A1     4.577604
      47B1     4.614882    32A2     4.619620    33A2     4.628431
      47B2     4.653767    48B1     4.682060    49B1     4.711965
      48B2     4.718120    65A1     4.724695    49B2     4.923258
      66A1     4.928377    34A2     5.277911    67A1     5.278326
      50B2     5.278635    50B1     5.278699    35A2     5.279123
      68A1     5.279442    36A2     5.279478    51B1     5.279620
      51B2     5.279658    69A1     5.279788    52B2     5.280136
      52B1     5.280441    37A2     5.280458    53B1     5.280836
      53B2     5.280922    70A1     5.281096    54B2     5.281337
      38A2     5.281451    54B1     5.281777    71A1     5.281785
      72A1     5.281916    39A2     5.282242    55B1     5.282443
      56B1     5.282960    55B2     5.283418    40A2     5.283707
      73A1     5.284316    74A1     5.289148    56B2     5.292009
      57B1     5.293207    57B2     5.295606    41A2     5.308918
      58B1     5.331536    75A1     5.360412    76A1     5.537426
      58B2     5.636746    77A1    32.987165    59B1    33.277743
      78A1    33.304523    59B2    33.337331    79A1   110.143070
      60B1   110.239006    80A1   110.244140    60B2   110.253137

    Final Occupation by Irrep:
             A1    A2    B1    B2
    DOCC [    13,    6,    9,    9 ]
    SOCC [     1,    0,    0,    0 ]

  @DF-UKS Final Energy:  -587.40083928951367

   => Energetics <=

    Nuclear Repulsion Energy =            413.2776657412570103
    One-Electron Energy =               -1842.5125547623333659
    Two-Electron Energy =                 869.3723661171185313
    DFT Exchange-Correlation Energy =     -27.5331014255556994
    Empirical Dispersion Energy =          -0.0052149600000000
    VV10 Nonlocal Energy =                  0.0000000000000000
    Total Energy =                       -587.4008392895136694

  UHF NO Occupations:
  HONO-2 :    9 B2 1.9993353
  HONO-1 :   13 A1 1.9936100
  HONO-0 :   14 A1 1.0000000
  LUNO+0 :   15 A1 0.0063900
  LUNO+1 :   10 B2 0.0006647
  LUNO+2 :   10 B1 0.0006303
  LUNO+3 :   16 A1 0.0002362

Computation Completed

Properties will be evaluated at   0.000000,   0.000000,   0.000000 [a0]

Properties computed using the SCF density matrix

  Nuclear Dipole Moment: [e a0]
     X:    -0.0000      Y:    -0.0000      Z:     3.4896

  Electronic Dipole Moment: [e a0]
     X:     0.0000      Y:     0.0000      Z:    -3.9641

  Dipole Moment: [e a0]
     X:    -0.0000      Y:    -0.0000      Z:    -0.4745     Total:     0.4745

  Dipole Moment: [D]
     X:    -0.0000      Y:    -0.0000      Z:    -1.2061     Total:     1.2061

*** tstop() called on compute405.bc4.acrc.priv at Tue Nov  2 11:07:46 2021
Module time:
	user time   =    1035.79 seconds =      17.26 minutes
	system time =      41.86 seconds =       0.70 minutes
	total time  =         51 seconds =       0.85 minutes
Total time:
	user time   =    1035.79 seconds =      17.26 minutes
	system time =      41.86 seconds =       0.70 minutes
	total time  =         51 seconds =       0.85 minutes

    Psi4 stopped on: Tuesday, 02 November 2021 11:07AM
    Psi4 wall time for execution: 0:00:51.68

*** Psi4 exiting successfully. Buy a developer a beer!
