                               Psi4 1.4.1 release

  ==> Input File <==

--------------------------------------------------------------------------
memory 144 GB

molecule {
0 1
Ag      -1.015022   -0.433109    0.700282
Ag       0.974659   -2.209777    0.043294
Ag       1.013798    0.433158   -0.699441
Ag      -0.973435    2.209727   -0.044135
 }

set basis Def2-TZVPPD

energy("M11-D3BJ")
--------------------------------------------------------------------------

    Molecular point group: c1

    Geometry (in Angstrom), charge = 0, multiplicity = 1:

       Center              X                  Y                   Z               Mass
    ------------   -----------------  -----------------  -----------------  -----------------
         AG          -1.015022000000    -0.433108750000     0.700282000000   106.905091600000
         AG           0.974659000000    -2.209776750000     0.043294000000   106.905091600000
         AG           1.013798000000     0.433158250000    -0.699441000000   106.905091600000
         AG          -0.973435000000     2.209727250000    -0.044135000000   106.905091600000

  Charge       = 0
  Multiplicity = 1
  Basis Set: DEF2-TZVPPD
    Blend: DEF2-TZVPPD
  Basis Set: (DEF2-TZVPPD AUX)
    Blend: DEF2-UNIVERSAL-JKFIT

    Orbital Energies [Eh]
    ---------------------

    Doubly Occupied:

       1A     -3.871027     2A     -3.870572     3A     -3.844894
       4A     -3.844837     5A     -2.469410     6A     -2.463891
       7A     -2.463502     8A     -2.463274     9A     -2.462974
      10A     -2.462494    11A     -2.438887    12A     -2.438717
      13A     -2.436896    14A     -2.436804    15A     -2.434985
      16A     -2.434932    17A     -0.493476    18A     -0.491143
      19A     -0.475436    20A     -0.471314    21A     -0.466843
      22A     -0.464222    23A     -0.451783    24A     -0.448884
      25A     -0.435247    26A     -0.433199    27A     -0.426621
      28A     -0.422789    29A     -0.422252    30A     -0.421274
      31A     -0.415562    32A     -0.415403    33A     -0.414535
      34A     -0.412189    35A     -0.408403    36A     -0.394356
      37A     -0.321204    38A     -0.219476

  @DF-RKS Final Energy:  -587.44323260905162

   => Energetics <=

    Nuclear Repulsion Energy =            390.9440573221471027
    One-Electron Energy =               -1827.1727666032695652
    Two-Electron Energy =                 876.3010705880687965
    DFT Exchange-Correlation Energy =     -27.5108055859979501
    Empirical Dispersion Energy =          -0.0047883300000000
    VV10 Nonlocal Energy =                  0.0000000000000000
    Total Energy =                       -587.4432326090516199

  Dipole Moment: [D]
     X:    -0.0040      Y:     0.0006      Z:     0.0021     Total:     0.0046

*** Psi4 exiting successfully. Buy a developer a beer!
