                               Psi4 1.4.1 release

  ==> Input File <==

--------------------------------------------------------------------------
memory 144 GB

molecule {
0 2
Au       0.000000    0.000000    0.000000
 }

set reference uks
set basis Def2-TZVPPD

energy("M11-D3BJ")
--------------------------------------------------------------------------

    Molecular point group: d2h
    Geometry (in Angstrom), charge = 0, multiplicity = 2:

       Center              X                  Y                   Z               Mass
    ------------   -----------------  -----------------  -----------------  -----------------
         AU           0.000000000000     0.000000000000     0.000000000000   196.966568790000

  Charge       = 0
  Multiplicity = 2
  Basis Set: DEF2-TZVPPD
    Blend: DEF2-TZVPPD
  Basis Set: (DEF2-TZVPPD AUX)
    Blend: DEF2-UNIVERSAL-JKFIT

    Orbital Energies [Eh]
    ---------------------

    Alpha Occupied:

       1Ag    -4.269835     1B3u   -2.437615     1B2u   -2.437615
       1B1u   -2.437615     1B1g   -0.413551     2Ag    -0.413551
       1B2g   -0.413551     3Ag    -0.413551     1B3g   -0.413551
       4Ag    -0.312009

    Alpha Virtual:

       2B2u    0.049198     2B3u    0.049198     2B1u    0.049198
       5Ag     0.190952     3B2u    0.243206     3B3u    0.243206
       3B1u    0.243206     2B1g    0.386362     6Ag     0.386362
       2B2g    0.386362     7Ag     0.386362     2B3g    0.386362
       4B3u    1.124649     4B2u    1.124649     4B1u    1.124649
       5B3u    1.233003     5B1u    1.233003     5B2u    1.233003
       6B2u    1.233003     1Au     1.233003     6B1u    1.233003
       6B3u    1.233003     8Ag     1.606886     3B1g    1.606886
       3B2g    1.606886     9Ag     1.606886     3B3g    1.606886
      10Ag     2.099982     7B3u    3.711582     7B2u    3.711582
       7B1u    3.711582     8B3u    3.711582     8B1u    3.711582
       2Au     3.711582     8B2u    3.711582     4B1g    4.244140
      11Ag     4.244140     4B2g    4.244140     4B3g    4.244140
      12Ag     4.244140     5B2g    4.244140     5B1g    4.244140
       5B3g    4.244140    13Ag     4.244140     9B3u   27.213231
       9B2u   27.213231     9B1u   27.213231    14Ag    43.779762
      15Ag   204.865325

    Beta Occupied:

       1Ag    -4.267001     1B2u   -2.433857     1B3u   -2.433857
       1B1u   -2.433857     1B3g   -0.402999     1B1g   -0.402999
       1B2g   -0.402999     2Ag    -0.402999     3Ag    -0.402998

    Beta Virtual:

       4Ag    -0.067264     2B2u    0.001019     2B3u    0.001019
       2B1u    0.001019     5Ag     0.159928     3B2u    0.248766
       3B3u    0.248766     3B1u    0.248766     2B1g    0.374860
       6Ag     0.374860     2B2g    0.374860     2B3g    0.374860
       7Ag     0.374860     4B3u    1.120301     4B2u    1.120301
       4B1u    1.120302     5B1u    1.241800     5B3u    1.241800
       5B2u    1.241800     6B2u    1.241800     1Au     1.241800
       6B1u    1.241800     6B3u    1.241800     3B3g    1.598886
       8Ag     1.598886     3B1g    1.598886     3B2g    1.598886
       9Ag     1.598886    10Ag     2.127287     7B1u    3.712328
       7B2u    3.712328     2Au     3.712328     7B3u    3.712328
       8B2u    3.712328     8B1u    3.712328     8B3u    3.712328
       4B1g    4.260428     4B3g    4.260428    11Ag     4.260428
      12Ag     4.260428     4B2g    4.260428     5B1g    4.260428
       5B3g    4.260428    13Ag     4.260428     5B2g    4.260428
       9B3u   27.223503     9B2u   27.223503     9B1u   27.223503
      14Ag    43.794777    15Ag   204.865197

    Final Occupation by Irrep:
             Ag   B1g   B2g   B3g    Au   B1u   B2u   B3u
    DOCC [     3,    1,    1,    1,    0,    1,    1,    1 ]
    SOCC [     1,    0,    0,    0,    0,    0,    0,    0 ]

  @DF-UKS Final Energy:  -135.56739931962582

   => Energetics <=

    Nuclear Repulsion Energy =              0.0000000000000000
    One-Electron Energy =                -238.8703147744204500
    Two-Electron Energy =                 109.4662607149643918
    DFT Exchange-Correlation Energy =      -6.1633452601697494
    Empirical Dispersion Energy =           0.0000000000000000
    VV10 Nonlocal Energy =                  0.0000000000000000
    Total Energy =                       -135.5673993196258209

  UHF NO Occupations:
  HONO-2 :    1B3u 1.9999913
  HONO-1 :    1B2u 1.9999913
  HONO-0 :    4 Ag 1.0000000
  LUNO+0 :    2B2u 0.0000087
  LUNO+1 :    2B3u 0.0000087
  LUNO+2 :    2B1u 0.0000087
  LUNO+3 :    2B3g 0.0000083

Computation Completed

Properties will be evaluated at   0.000000,   0.000000,   0.000000 [a0]

Properties computed using the SCF density matrix

  Nuclear Dipole Moment: [e a0]
     X:     0.0000      Y:     0.0000      Z:     0.0000

  Electronic Dipole Moment: [e a0]
     X:     0.0000      Y:     0.0000      Z:     0.0000

  Dipole Moment: [e a0]
     X:     0.0000      Y:     0.0000      Z:     0.0000     Total:     0.0000

  Dipole Moment: [D]
     X:     0.0000      Y:     0.0000      Z:     0.0000     Total:     0.0000

*** tstop() called on compute495.bc4.acrc.priv at Tue Nov  2 16:12:58 2021
Module time:
	user time   =     105.87 seconds =       1.76 minutes
	system time =       3.78 seconds =       0.06 minutes
	total time  =          8 seconds =       0.13 minutes
Total time:
	user time   =     105.87 seconds =       1.76 minutes
	system time =       3.78 seconds =       0.06 minutes
	total time  =          8 seconds =       0.13 minutes

    Psi4 stopped on: Tuesday, 02 November 2021 04:12PM
    Psi4 wall time for execution: 0:00:08.02

*** Psi4 exiting successfully. Buy a developer a beer!
