                               Psi4 1.4.1 release

  ==> Input File <==

--------------------------------------------------------------------------
memory 120 GB

molecule {
2 1
Au       0.000000    1.548281   -0.453246
Au       1.340851   -0.774141   -0.453246
Au      -1.340851   -0.774141   -0.453246
Au       0.000000    0.000000    1.783664
N        0.000000    0.000000   -3.226055
H       -0.813891    0.469900   -3.635956
H        0.813891    0.469900   -3.635956
H       -0.000000   -0.939800   -3.635956
 }

set basis Def2-TZVPPD

energy("M11-D3BJ")
--------------------------------------------------------------------------

    Molecular point group: cs

    Geometry (in Angstrom), charge = 2, multiplicity = 1:

       Center              X                  Y                   Z               Mass
    ------------   -----------------  -----------------  -----------------  -----------------
         AU          -1.548281244712     0.487202496432     0.000000000000   196.966568790000
         AU           0.774140755288     0.487202496432     1.340851000000   196.966568790000
         AU           0.774140755288     0.487202496432    -1.340851000000   196.966568790000
         AU          -0.000000244712    -1.749707503568     0.000000000000   196.966568790000
         N           -0.000000244712     3.260011496432     0.000000000000    14.003074004430
         H           -0.469900244712     3.669912496432    -0.813891000000     1.007825032230
         H           -0.469900244712     3.669912496432     0.813891000000     1.007825032230
         H            0.939799755288     3.669912496432     0.000000000000     1.007825032230

  Charge       = 2
  Multiplicity = 1
  Basis Set: DEF2-TZVPPD
    Blend: DEF2-TZVPPD
  Basis Set: (DEF2-TZVPPD AUX)
    Blend: DEF2-UNIVERSAL-JKFIT

    Orbital Energies [Eh]
    ---------------------

    Doubly Occupied:

       1Ap   -14.884669     2Ap    -4.650759     3Ap    -4.650365
       1App   -4.650362     4Ap    -4.646192     5Ap    -2.829996
       6Ap    -2.822651     2App   -2.822648     7Ap    -2.819740
       3App   -2.816016     8Ap    -2.816010     4App   -2.813461
       9Ap    -2.813459    10Ap    -2.813405     5App   -2.813006
       6App   -2.809501    11Ap    -2.809498    12Ap    -1.285263
      13Ap    -0.891271    14Ap    -0.874463     7App   -0.874460
      15Ap    -0.847422     8App   -0.844658    16Ap    -0.844658
      17Ap    -0.827776     9App   -0.827775    18Ap    -0.806193
      19Ap    -0.799898    10App   -0.799892    20Ap    -0.770371
      11App   -0.764187    21Ap    -0.764186    12App   -0.763796
      22Ap    -0.762672    13App   -0.762655    23Ap    -0.760319
      14App   -0.760312    24Ap    -0.756069    25Ap    -0.723808
      15App   -0.723807    16App   -0.723464    26Ap    -0.680761

  @DF-RKS Final Energy:  -598.36216819451170

   => Energetics <=

    Nuclear Repulsion Energy =            547.1140380717746439
    One-Electron Energy =               -2093.9161009718418427
    Two-Electron Energy =                 977.0086656846530104
    DFT Exchange-Correlation Energy =     -28.5613007790977314
    Empirical Dispersion Energy =          -0.0074702000000000
    VV10 Nonlocal Energy =                  0.0000000000000000
    Total Energy =                       -598.3621681945116961

  Dipole Moment: [D]
     X:    -0.0005      Y:     4.2604      Z:     0.0000     Total:     4.2604

*** Psi4 exiting successfully. Buy a developer a beer!
