                               Psi4 1.4.1 release

  ==> Input File <==

--------------------------------------------------------------------------
memory 120 GB

molecule {
2 1
Au      -0.274490    1.572639   -0.000000
Au       1.635934   -0.418177    0.000000
Au      -0.639028   -0.815642    1.333593
Au      -0.639028   -0.815642   -1.333593
N       -0.639028    3.654013   -0.000000
H       -0.235750    4.112347    0.824759
H       -0.235750    4.112347   -0.824759
H       -1.642949    3.866239   -0.000000
 }

set basis Def2-TZVPPD

energy("M11-D3BJ")
--------------------------------------------------------------------------

    Molecular point group: cs

    Geometry (in Angstrom), charge = 2, multiplicity = 1:

       Center              X                  Y                   Z               Mass
    ------------   -----------------  -----------------  -----------------  -----------------
         AU          -0.281131004952     1.610613041947     0.000000000000   196.966568790000
         AU           1.629292995048    -0.380202958053     0.000000000000   196.966568790000
         AU          -0.645669004952    -0.777667958053     1.333593000000   196.966568790000
         AU          -0.645669004952    -0.777667958053    -1.333593000000   196.966568790000
         N           -0.645669004952     3.691987041947     0.000000000000    14.003074004430
         H           -0.242391004952     4.150321041947     0.824759000000     1.007825032230
         H           -0.242391004952     4.150321041947    -0.824759000000     1.007825032230
         H           -1.649590004952     3.904213041947     0.000000000000     1.007825032230

  Charge       = 2
  Multiplicity = 1
  Basis Set: DEF2-TZVPPD
    Blend: DEF2-TZVPPD
  Basis Set: (DEF2-TZVPPD AUX)
    Blend: DEF2-UNIVERSAL-JKFIT

    Orbital Energies [Eh]
    ---------------------

    Doubly Occupied:

       1Ap   -14.955085     2Ap    -4.640839     3Ap    -4.640410
       1App   -4.640397     4Ap    -4.634588     5Ap    -2.820692
       6Ap    -2.812625     2App   -2.812623     7Ap    -2.812003
       3App   -2.805338     8Ap    -2.805327     9Ap    -2.803483
      10Ap    -2.802978     4App   -2.802973     5App   -2.802552
       6App   -2.792687    11Ap    -2.792686    12Ap    -1.345670
      13Ap    -0.935982     7App   -0.935978    14Ap    -0.897219
      15Ap    -0.849717     8App   -0.831319    16Ap    -0.831278
      17Ap    -0.816681    18Ap    -0.812540     9App   -0.812538
      19Ap    -0.793742    20Ap    -0.785970    10App   -0.785967
      11App   -0.753161    21Ap    -0.753144    12App   -0.752074
      13App   -0.750357    22Ap    -0.750357    23Ap    -0.745237
      14App   -0.745231    24Ap    -0.741588    15App   -0.712633
      25Ap    -0.712612    16App   -0.711562    26Ap    -0.701878

  @DF-RKS Final Energy:  -598.42698269537163

   => Energetics <=

    Nuclear Repulsion Energy =            541.9645184554937032
    One-Electron Energy =               -2083.9402788512825282
    Two-Electron Energy =                 972.1120821803079934
    DFT Exchange-Correlation Energy =     -28.5559701298908024
    Empirical Dispersion Energy =          -0.0073343500000000
    VV10 Nonlocal Energy =                  0.0000000000000000
    Total Energy =                       -598.4269826953715210

  Dipole Moment: [D]
     X:    -1.1002      Y:     6.2864      Z:     0.0000     Total:     6.3819

*** Psi4 exiting successfully. Buy a developer a beer!
