                               Psi4 1.4.1 release

  ==> Input File <==

--------------------------------------------------------------------------
memory 144 GB

molecule {
0 1
Cu       0.000000    0.000000    0.048513
H        0.000000    0.000000   -1.406870
 }

set basis Def2-TZVPPD

energy("M11-D3BJ")
--------------------------------------------------------------------------

    Molecular point group: c2v

    Geometry (in Angstrom), charge = 0, multiplicity = 1:

       Center              X                  Y                   Z               Mass
    ------------   -----------------  -----------------  -----------------  -----------------
         CU           0.000000000000     0.000000000000     0.022940734170    62.929597720000
         H            0.000000000000     0.000000000000    -1.432442265830     1.007825032230

  Charge       = 0
  Multiplicity = 1
  Basis Set: DEF2-TZVPPD
    Blend: DEF2-TZVPPD
  Basis Set: (DEF2-TZVPPD AUX)
    Blend: DEF2-UNIVERSAL-JKFIT

    Orbital Energies [Eh]
    ---------------------

    Doubly Occupied:

       1A1  -323.933655     2A1   -39.065258     3A1   -34.331356
       1B1   -34.330000     1B2   -34.330000     4A1    -4.420671
       5A1    -2.944096     2B1    -2.938338     2B2    -2.938338
       6A1    -0.450629     3B1    -0.415314     3B2    -0.415314
       7A1    -0.412372     1A2    -0.412372     8A1    -0.328730

  @DF-RKS Final Energy: -1640.90023560068630

   => Energetics <=

    Nuclear Repulsion Energy =             10.5443990409603536
    One-Electron Energy =               -2308.4805512886568977
    Two-Electron Energy =                 693.8142459148889429
    DFT Exchange-Correlation Energy =     -36.7782905278786387
    Empirical Dispersion Energy =          -0.0000387400000000
    VV10 Nonlocal Energy =                  0.0000000000000000
    Total Energy =                      -1640.9002356006863010

  Dipole Moment: [D]
     X:     0.0000      Y:     0.0000      Z:     3.5104     Total:     3.5104

*** Psi4 exiting successfully. Buy a developer a beer!
