                               Psi4 1.4.1 release

  ==> Input File <==

--------------------------------------------------------------------------
memory 144 GB

molecule {
0 2
Cu       0.000000    0.000000    0.000000
 }

set reference uks
set basis Def2-TZVPPD

energy("M11-D3BJ")
--------------------------------------------------------------------------

    Molecular point group: d2h
    Geometry (in Angstrom), charge = 0, multiplicity = 2:

       Center              X                  Y                   Z               Mass
    ------------   -----------------  -----------------  -----------------  -----------------
         CU           0.000000000000     0.000000000000     0.000000000000    62.929597720000

  Charge       = 0
  Multiplicity = 2
  Basis Set: DEF2-TZVPPD
    Blend: DEF2-TZVPPD
  Basis Set: (DEF2-TZVPPD AUX)
    Blend: DEF2-UNIVERSAL-JKFIT

    Orbital Energies [Eh]
    ---------------------

    Alpha Occupied:

       1Ag  -323.909610     2Ag   -39.034051     1B3u  -34.299837
       1B2u  -34.299837     1B1u  -34.299837     3Ag    -4.393288
       2B3u   -2.913062     2B2u   -2.913062     2B1u   -2.913062
       4Ag    -0.390072     1B1g   -0.390072     1B2g   -0.390072
       1B3g   -0.390072     5Ag    -0.390072     6Ag    -0.242499

    Alpha Virtual:

       3B1u    0.036923     3B2u    0.036924     3B3u    0.036924
       7Ag     0.150261     4B1u    0.176272     4B2u    0.176272
       4B3u    0.176272     8Ag     0.237820     2B3g    0.237820
       2B2g    0.237820     2B1g    0.237820     9Ag     0.237820
       5B1u    0.743600     5B2u    0.743600     5B3u    0.743600
      10Ag     0.986438     3B3g    0.986438     3B2g    0.986438
       3B1g    0.986438    11Ag     0.986438    12Ag     3.024961
       6B1u    3.090668     6B2u    3.090668     6B3u    3.090668
       7B1u    3.566479     7B2u    3.566479     7B3u    3.566480
       1Au     3.566480     8B1u    3.566480     8B2u    3.566480
       8B3u    3.566480    13Ag     3.798173     4B1g    3.798173
       4B3g    3.798173    14Ag     3.798174     4B2g    3.798174
      15Ag    13.011063     5B3g   13.011063     5B2g   13.011063
       5B1g   13.011063    16Ag    13.011063     6B2g   13.011063
       6B3g   13.011063    17Ag    13.011063     6B1g   13.011063
       9B2u   13.222518     9B3u   13.222518     9B1u   13.222518
       2Au    13.222518    10B3u   13.222518    10B2u   13.222518
      10B1u   13.222518

    Beta Occupied:

       1Ag  -323.908204     2Ag   -39.033891     1B3u  -34.300488
       1B1u  -34.300488     1B2u  -34.300488     3Ag    -4.390038
       2B1u   -2.912805     2B2u   -2.912805     2B3u   -2.912805
       1B3g   -0.388437     1B2g   -0.388436     4Ag    -0.388436
       1B1g   -0.388436     5Ag    -0.388436

    Beta Virtual:

       6Ag    -0.032840     3B1u   -0.032731     3B2u   -0.032730
       3B3u   -0.032730     7Ag     0.137893     4B1u    0.185774
       4B2u    0.185774     4B3u    0.185774     8Ag     0.206590
       2B3g    0.206590     2B2g    0.206590     2B1g    0.206590
       9Ag     0.206590     5B3u    0.750201     5B2u    0.750202
       5B1u    0.750202    10Ag     1.000273     3B3g    1.000273
       3B2g    1.000273     3B1g    1.000273    11Ag     1.000273
      12Ag     3.032710     6B1u    3.089842     6B2u    3.089843
       6B3u    3.089843     7B1u    3.567974     7B2u    3.567974
       7B3u    3.567975     1Au     3.567975     8B1u    3.567975
       8B2u    3.567975     8B3u    3.567975    13Ag     3.793303
       4B3g    3.793303     4B2g    3.793304     4B1g    3.793304
      14Ag     3.793304    15Ag    13.010610     5B1g   13.010610
       5B2g   13.010610    16Ag    13.010610     5B3g   13.010610
      17Ag    13.010610     6B1g   13.010610     6B2g   13.010610
       6B3g   13.010610     9B1u   13.218962     9B2u   13.218962
       9B3u   13.218962     2Au    13.218962    10B1u   13.218962
      10B2u   13.218962    10B3u   13.218962

    Final Occupation by Irrep:
             Ag   B1g   B2g   B3g    Au   B1u   B2u   B3u
    DOCC [     5,    1,    1,    1,    0,    2,    2,    2 ]
    SOCC [     1,    0,    0,    0,    0,    0,    0,    0 ]

  @DF-UKS Final Energy: -1640.30202943337281

   => Energetics <=

    Nuclear Repulsion Energy =              0.0000000000000000
    One-Electron Energy =               -2287.5163355675617822
    Two-Electron Energy =                 683.8514654564249895
    DFT Exchange-Correlation Energy =     -36.6371593222359806
    Empirical Dispersion Energy =           0.0000000000000000
    VV10 Nonlocal Energy =                  0.0000000000000000
    Total Energy =                      -1640.3020294333725815

  UHF NO Occupations:
  HONO-2 :    1B3g 1.9999026
  HONO-1 :    5 Ag 1.9999026
  HONO-0 :    6 Ag 1.0000000
  LUNO+0 :    7 Ag 0.0000974
  LUNO+1 :    2B3g 0.0000974
  LUNO+2 :    2B2g 0.0000974
  LUNO+3 :    2B1g 0.0000974

Computation Completed

Properties will be evaluated at   0.000000,   0.000000,   0.000000 [a0]

Properties computed using the SCF density matrix

  Nuclear Dipole Moment: [e a0]
     X:     0.0000      Y:     0.0000      Z:     0.0000

  Electronic Dipole Moment: [e a0]
     X:     0.0000      Y:     0.0000      Z:     0.0000

  Dipole Moment: [e a0]
     X:     0.0000      Y:     0.0000      Z:     0.0000     Total:     0.0000

  Dipole Moment: [D]
     X:     0.0000      Y:     0.0000      Z:     0.0000     Total:     0.0000

*** tstop() called on compute404.bc4.acrc.priv at Tue Nov  2 11:06:24 2021
Module time:
	user time   =      77.04 seconds =       1.28 minutes
	system time =       3.13 seconds =       0.05 minutes
	total time  =          5 seconds =       0.08 minutes
Total time:
	user time   =      77.04 seconds =       1.28 minutes
	system time =       3.13 seconds =       0.05 minutes
	total time  =          5 seconds =       0.08 minutes

    Psi4 stopped on: Tuesday, 02 November 2021 11:06AM
    Psi4 wall time for execution: 0:00:04.73

*** Psi4 exiting successfully. Buy a developer a beer!
