                               Psi4 1.3.2 release

  ==> Input File <==

--------------------------------------------------------------------------
memory 144 GB

molecule {
0 1
Cu       0.000000    0.000000    0.412716
F        0.000000    0.000000   -1.329863
 }

set basis Def2-TZVPPD

energy("M11-D3BJ")
--------------------------------------------------------------------------

    Molecular point group: c2v

    Geometry (in Angstrom), charge = 0, multiplicity = 1:

       Center              X                  Y                   Z               Mass
    ------------   -----------------  -----------------  -----------------  -----------------
         CU           0.000000000000     0.000000000000     0.404089176206    62.929597720000
         F            0.000000000000     0.000000000000    -1.338489823794    18.998403162730

  Charge       = 0
  Multiplicity = 1
  Basis Set: DEF2-TZVPPD
    Blend: DEF2-TZVPPD
  Basis Set: (DEF2-TZVPPD AUX)
    Blend: DEF2-TZVPP-JKFIT

    Orbital Energies [Eh]
    ---------------------

    Doubly Occupied:

       1A1  -323.954436     2A1   -39.081078     1B2   -34.346329
       1B1   -34.346329     3A1   -34.344878     4A1   -24.896949
       5A1    -4.441189     2B2    -2.962155     2B1    -2.962155
       6A1    -2.962120     7A1    -1.161518     8A1    -0.502783
       3B2    -0.476963     3B1    -0.476963     1A2    -0.438504
       9A1    -0.438484     4B2    -0.396496     4B1    -0.396496
      10A1    -0.381754

  @DF-RKS Final Energy: -1740.22062756823175

   => Energetics <=

    Nuclear Repulsion Energy =             79.2591050304577180
    One-Electron Energy =               -2585.5185675641109810
    Two-Electron Energy =                 808.1689118987970915
    DFT Exchange-Correlation Energy =     -42.1300219133756570
    Empirical Dispersion Energy =          -0.0000550200000000
    VV10 Nonlocal Energy =                  0.0000000000000000
    Total Energy =                      -1740.2206275682319756

  Dipole Moment: [D]
     X:     0.0000      Y:     0.0000      Z:     5.7392     Total:     5.7392

*** Psi4 exiting successfully. Buy a developer a beer!
