                               Psi4 1.3.2 release

  ==> Input File <==

--------------------------------------------------------------------------
memory 144 GB

molecule {
0 1
Cu       0.000000    0.000000    1.107490
Cu       0.000000    0.000000   -1.107490
 }

set basis Def2-TZVPPD

energy("M11-D3BJ")
--------------------------------------------------------------------------

    Molecular point group: d2h

    Geometry (in Angstrom), charge = 0, multiplicity = 1:

       Center              X                  Y                   Z               Mass
    ------------   -----------------  -----------------  -----------------  -----------------
         CU           0.000000000000     0.000000000000     1.107490000000    62.929597720000
         CU           0.000000000000     0.000000000000    -1.107490000000    62.929597720000

  Charge       = 0
  Multiplicity = 1
  Basis Set: DEF2-TZVPPD
    Blend: DEF2-TZVPPD
  Basis Set: (DEF2-TZVPPD AUX)
    Blend: DEF2-TZVPP-JKFIT

    Orbital Energies [Eh]
    ---------------------

    Doubly Occupied:

       1B1u -323.898669     1Ag  -323.898661     2B1u  -39.026680
       2Ag   -39.026604     3B1u  -34.291426     3Ag   -34.291416
       1B3g  -34.290898     1B2g  -34.290898     1B2u  -34.290890
       1B3u  -34.290890     4Ag    -4.382255     4B1u   -4.381497
       5Ag    -2.907102     2B3u   -2.901188     2B2u   -2.901188
       5B1u   -2.900630     2B2g   -2.900613     2B3g   -2.900613
       6Ag    -0.409535     3B3u   -0.398138     3B2u   -0.398138
       7Ag    -0.379990     1B1g   -0.379974     6B1u   -0.371677
       1Au    -0.371663     3B2g   -0.357704     3B3g   -0.357704
       7B1u   -0.353801     8Ag    -0.262420

  @DF-RKS Final Energy: -3280.65928668678725

   => Energetics <=

    Nuclear Repulsion Energy =            200.9219199150647057
    One-Electron Energy =               -4977.5488591796838591
    Two-Electron Energy =                1569.2697058462608766
    DFT Exchange-Correlation Energy =     -73.3015236984290084
    Empirical Dispersion Energy =          -0.0005295700000000
    VV10 Nonlocal Energy =                  0.0000000000000000
    Total Energy =                      -3280.6592866867867997

  Dipole Moment: [D]
     X:     0.0000      Y:     0.0000      Z:    -0.0000     Total:     0.0000

*** Psi4 exiting successfully. Buy a developer a beer!
