                               Psi4 1.3.2 release

  ==> Input File <==

--------------------------------------------------------------------------
memory 144 GB

molecule {
1 1
Cu       0.000000    0.000000    0.000000
Cu       0.000000    0.000000    2.337165
Cu       0.000000    0.000000   -2.337165
 }

set basis Def2-TZVPPD

energy("M11-D3BJ")
--------------------------------------------------------------------------

    Molecular point group: d2h

    Geometry (in Angstrom), charge = 1, multiplicity = 1:

       Center              X                  Y                   Z               Mass
    ------------   -----------------  -----------------  -----------------  -----------------
         CU           0.000000000000     0.000000000000     0.000000000000    62.929597720000
         CU           0.000000000000     0.000000000000     2.337165000000    62.929597720000
         CU           0.000000000000     0.000000000000    -2.337165000000    62.929597720000

  Charge       = 1
  Multiplicity = 1
  Basis Set: DEF2-TZVPPD
    Blend: DEF2-TZVPPD
  Basis Set: (DEF2-TZVPPD AUX)
    Blend: DEF2-TZVPP-JKFIT

    Orbital Energies [Eh]
    ---------------------

    Doubly Occupied:

       1B1u -324.133658     1Ag  -324.133655     2Ag  -324.082849
       2B1u  -39.254640     3Ag   -39.254607     4Ag   -39.212571
       5Ag   -34.520510     3B1u  -34.520507     1B2g  -34.520088
       1B3g  -34.520088     1B3u  -34.520085     1B2u  -34.520085
       4B1u  -34.477735     2B3u  -34.476040     2B2u  -34.476040
       5B1u   -4.613280     6Ag    -4.613224     7Ag    -4.566529
       6B1u   -3.136724     8Ag    -3.136583     3B3u   -3.134731
       3B2u   -3.134731     2B2g   -3.134716     2B3g   -3.134716
       7B1u   -3.090384     4B3u   -3.083483     4B2u   -3.083483
       9Ag    -0.634190     3B3g   -0.619790     3B2g   -0.619790
       8B1u   -0.614485     5B2u   -0.613331     5B3u   -0.613331
      10Ag    -0.611337     1B1g   -0.611326     9B1u   -0.611032
       1Au    -0.611021    11Ag    -0.556938     2B1g   -0.556921
       4B2g   -0.554962     4B3g   -0.554962    12Ag    -0.552645
      13Ag    -0.445655

  @DF-RKS Final Energy: -4920.74353272088047

   => Energetics <=

    Nuclear Repulsion Energy =            476.0447317299698398
    One-Electron Energy =               -7796.8420461686437193
    Two-Electron Energy =                2509.9628650033014310
    DFT Exchange-Correlation Energy =    -109.9076378055075338
    Empirical Dispersion Energy =          -0.0014454800000000
    VV10 Nonlocal Energy =                  0.0000000000000000
    Total Energy =                      -4920.7435327208813760

  Dipole Moment: [D]
     X:     0.0000      Y:     0.0000      Z:    -0.0000     Total:     0.0000

*** Psi4 exiting successfully. Buy a developer a beer!
