                               Psi4 1.3.2 release

  ==> Input File <==

--------------------------------------------------------------------------
memory 144 GB

molecule {
1 1
Cu       0.000000    1.349261   -0.000000
Cu       1.168494   -0.674630    0.000000
Cu      -1.168494   -0.674630   -0.000000
 }

set basis Def2-TZVPPD

energy("M11-D3BJ")
--------------------------------------------------------------------------

    Molecular point group: c2v

    Geometry (in Angstrom), charge = 1, multiplicity = 1:

       Center              X                  Y                   Z               Mass
    ------------   -----------------  -----------------  -----------------  -----------------
         CU           0.000000000000     0.000000000000     1.349260666667    62.929597720000
         CU           1.168494000000     0.000000000000    -0.674630333333    62.929597720000
         CU          -1.168494000000    -0.000000000000    -0.674630333333    62.929597720000

  Charge       = 1
  Multiplicity = 1
  Basis Set: DEF2-TZVPPD
    Blend: DEF2-TZVPPD
  Basis Set: (DEF2-TZVPPD AUX)
    Blend: DEF2-TZVPP-JKFIT

    Orbital Energies [Eh]
    ---------------------

    Doubly Occupied:

       1A1  -324.121926     1B1  -324.121921     2A1  -324.121914
       3A1   -39.248480     2B1   -39.248475     4A1   -39.248392
       3B1   -34.513775     4B1   -34.513756     5A1   -34.513752
       6A1   -34.513220     5B1   -34.513214     7A1   -34.513201
       1B2   -34.512504     1A2   -34.512499     2B2   -34.512490
       8A1    -4.604828     9A1    -4.604236     6B1    -4.604226
      10A1    -3.128917     7B1    -3.127328    11A1    -3.127318
       8B1    -3.124917    12A1    -3.123746     9B1    -3.123742
       3B2    -3.123276     4B2    -3.122799     2A2    -3.122789
      13A1    -0.644652     5B2    -0.625901    10B1    -0.625881
      14A1    -0.625870    15A1    -0.613052     3A2    -0.609389
       6B2    -0.609380    16A1    -0.590517    11B1    -0.590508
       4A2    -0.588227    17A1    -0.582809    12B1    -0.582799
       7B2    -0.582449     5A2    -0.582441    13B1    -0.564425
      18A1    -0.507395

  @DF-RKS Final Energy: -4920.81019386270145

   => Energetics <=

    Nuclear Repulsion Energy =            571.2969406416424363
    One-Electron Energy =               -7986.8344454052821675
    Two-Electron Energy =                2604.6581498864725290
    DFT Exchange-Correlation Energy =    -109.9292775055341451
    Empirical Dispersion Energy =          -0.0015614800000000
    VV10 Nonlocal Energy =                  0.0000000000000000
    Total Energy =                      -4920.8101938627014533

  Dipole Moment: [D]
     X:     0.0000      Y:     0.0000      Z:     0.0005     Total:     0.0005

*** Psi4 exiting successfully. Buy a developer a beer!
