                               Psi4 1.3.2 release

  ==> Input File <==

--------------------------------------------------------------------------
memory 144 GB

molecule {
0 2
Cu       0.000000    1.346828   -0.000000
Cu       1.166387   -0.673414   -0.000000
Cu      -1.166387   -0.673414   -0.000000
 }

set reference uks
set basis Def2-TZVPPD

energy("M11-D3BJ")
--------------------------------------------------------------------------

    Molecular point group: c2v

    Geometry (in Angstrom), charge = 0, multiplicity = 2:

       Center              X                  Y                   Z               Mass
    ------------   -----------------  -----------------  -----------------  -----------------
         CU           0.000000000000    -0.000000000000     1.346828000000    62.929597720000
         CU           1.166387000000     0.000000000000    -0.673414000000    62.929597720000
         CU          -1.166387000000    -0.000000000000    -0.673414000000    62.929597720000

  Charge       = 0
  Multiplicity = 2
  Basis Set: DEF2-TZVPPD
    Blend: DEF2-TZVPPD
  Basis Set: (DEF2-TZVPPD AUX)
    Blend: DEF2-TZVPP-JKFIT

    Orbital Energies [Eh]
    ---------------------

    Alpha Occupied:

       1A1  -323.927117     1B1  -323.912357     2A1  -323.912351
       3A1   -39.054261     2B1   -39.041905     4A1   -39.041848
       5A1   -34.319226     3B1   -34.318872     1B2   -34.318767
       4B1   -34.306340     6A1   -34.306331     5B1   -34.306221
       7A1   -34.306205     1A2   -34.305144     2B2   -34.305137
       8A1    -4.410070     9A1    -4.396778     6B1    -4.396375
      10A1    -2.932599     7B1    -2.930197     3B2    -2.929673
      11A1    -2.918550     8B1    -2.916801    12A1    -2.916718
       9B1    -2.914660     4B2    -2.913855     2A2    -2.913584
      13A1    -0.442403    10B1    -0.426473     5B2    -0.423931
      14A1    -0.418983     3A2    -0.410203    15A1    -0.410019
       6B2    -0.400936    16A1    -0.386696    17A1    -0.382986
       7B2    -0.381216    11B1    -0.381097     4A2    -0.381054
      12B1    -0.374170     5A2    -0.373149    13B1    -0.360267
      18A1    -0.325041    14B1    -0.179886

    Alpha Virtual:

      19A1    -0.024043     8B2     0.017480    20A1     0.022211
      21A1     0.045678    15B1     0.051557    22A1     0.053209
       9B2     0.056683    16B1     0.061599     6A2     0.075808
      17B1     0.096305    23A1     0.132651    10B2     0.137152
      24A1     0.161219    18B1     0.161655    25A1     0.175770
       7A2     0.210490    11B2     0.211828    26A1     0.216765
      19B1     0.227072    27A1     0.242603    20B1     0.256058
      12B2     0.258830    28A1     0.264362     8A2     0.264736
      21B1     0.273620    13B2     0.282786    29A1     0.323198
      22B1     0.327251     9A2     0.343155    30A1     0.351624
      31A1     0.372736    14B2     0.372830    23B1     0.376109
      10A2     0.383518    24B1     0.488127    32A1     0.547957
      25B1     0.551097    33A1     0.703106    15B2     0.710124
      34A1     0.756731    26B1     0.758836    16B2     0.803142
      11A2     0.813671    35A1     0.864574    27B1     0.874432
      36A1     0.880545    17B2     0.901413    12A2     0.936040
      18B2     0.940276    28B1     0.977770    37A1     1.017368
      29B1     1.044414    38A1     1.048378    13A2     1.123737
      39A1     1.147336    30B1     1.149250    19B2     1.186749
      14A2     1.191569    40A1     1.375280    31B1     1.375925
      32B1     1.385453    20B2     3.057038    41A1     3.134113
      33B1     3.139219    42A1     3.148889    21B2     3.159529
      15A2     3.170730    43A1     3.196803    34B1     3.203765
      44A1     3.212878    35B1     3.318293    45A1     3.515215
      46A1     3.522056    36B1     3.526433    22B2     3.541614
      16A2     3.544442    23B2     3.556360    37B1     3.564658
      24B2     3.565166    47A1     3.566336    38B1     3.573323
      25B2     3.579794    48A1     3.580826    17A2     3.581490
      39B1     3.583193    18A2     3.584221    26B2     3.584278
      49A1     3.584725    40B1     3.586830    19A2     3.590891
      50A1     3.608499    41B1     3.662419    51A1     3.715932
      42B1     3.723285    20A2     3.814102    52A1     3.819757
      27B2     3.822243    28B2     3.857310    53A1     3.864009
      43B1     3.872136    21A2     3.885391    29B2     3.931460
      22A2     3.943067    44B1     4.071527    54A1     4.076466
      55A1     4.107579    45B1     4.116239    56A1     4.359236
      46B1     4.363409    57A1    12.993426    30B2    12.994091
      23A2    12.994640    31B2    12.994921    58A1    12.995654
      47B1    12.995695    48B1    12.996019    59A1    12.996902
      24A2    12.997103    60A1    13.010597    49B1    13.010986
      50B1    13.011461    25A2    13.011574    32B2    13.011647
      61A1    13.012099    26A2    13.012310    33B2    13.012413
      62A1    13.012970    51B1    13.013270    27A2    13.013291
      34B2    13.013440    52B1    13.013581    63A1    13.014046
      35B2    13.014093    28A2    13.014095    64A1    13.014238
      53B1    13.014334    36B2    13.203992    54B1    13.204730
      29A2    13.206920    37B2    13.206996    65A1    13.208829
      66A1    13.210072    55B1    13.213442    38B2    13.218257
      30A2    13.219081    56B1    13.219454    67A1    13.219566
      39B2    13.220391    31A2    13.224839    68A1    13.227280
      69A1    13.228354    40B2    13.232895    57B1    13.234180
      32A2    13.235366    58B1    13.305127    70A1    13.313020
      59B1    13.315986

    Beta Occupied:

       1A1  -323.927050     1B1  -323.911844     2A1  -323.911838
       3A1   -39.054343     2B1   -39.041418     4A1   -39.041361
       5A1   -34.319220     1B2   -34.318862     3B1   -34.318683
       4B1   -34.306215     6A1   -34.306207     5B1   -34.306006
       7A1   -34.305989     1A2   -34.305204     2B2   -34.305196
       8A1    -4.410132     9A1    -4.394916     6B1    -4.394503
      10A1    -2.932758     3B2    -2.929896     7B1    -2.929450
      11A1    -2.918061     8B1    -2.915668    12A1    -2.915256
       9B1    -2.913602     4B2    -2.913152     2A2    -2.912850
      13A1    -0.442079    10B1    -0.424606     5B2    -0.424391
      14A1    -0.417211     3A2    -0.409593    15A1    -0.407848
       6B2    -0.400111    16A1    -0.386154    17A1    -0.382495
       7B2    -0.380477     4A2    -0.380298    11B1    -0.379464
       5A2    -0.371257    12B1    -0.371250    13B1    -0.356065
      18A1    -0.310323

    Beta Virtual:

      19A1    -0.036091    14B1    -0.034479    20A1    -0.006624
       8B2     0.003196    15B1     0.020900    21A1     0.022734
       6A2     0.027991     9B2     0.030373    16B1     0.032332
      22A1     0.033203    17B1     0.041750    23A1     0.117204
      10B2     0.126301    18B1     0.155420    24A1     0.158474
      25A1     0.177849    26A1     0.205596    11B2     0.205778
      19B1     0.208710     7A2     0.213010    27A1     0.241785
      20B1     0.243449    12B2     0.253699     8A2     0.254522
      28A1     0.255364    21B1     0.267588    13B2     0.276894
      22B1     0.314924    29A1     0.315545     9A2     0.326563
      30A1     0.339876    14B2     0.362607    23B1     0.364437
      31A1     0.365282    10A2     0.371907    24B1     0.481702
      32A1     0.541076    25B1     0.545328    33A1     0.698134
      15B2     0.706609    26B1     0.757752    34A1     0.758300
      16B2     0.801201    11A2     0.813364    35A1     0.863549
      27B1     0.881253    36A1     0.885432    17B2     0.904139
      12A2     0.937198    18B2     0.945172    28B1     0.978407
      37A1     1.019358    29B1     1.048660    38A1     1.056117
      13A2     1.127393    39A1     1.151445    30B1     1.158037
      19B2     1.188281    14A2     1.198417    40A1     1.378325
      31B1     1.381788    32B1     1.392585    20B2     3.057455
      41A1     3.135635    33B1     3.141559    42A1     3.153141
      21B2     3.159446    15A2     3.170634    43A1     3.196456
      34B1     3.204172    44A1     3.211686    35B1     3.319890
      45A1     3.516956    46A1     3.522699    36B1     3.530797
      22B2     3.541281    16A2     3.544374    23B2     3.557149
      37B1     3.565662    24B2     3.565963    47A1     3.567089
      38B1     3.573489    25B2     3.581606    48A1     3.582403
      17A2     3.583351    39B1     3.584933    18A2     3.585118
      26B2     3.585195    49A1     3.586447    40B1     3.588651
      19A2     3.591749    50A1     3.608641    41B1     3.663307
      51A1     3.715838    42B1     3.723143    20A2     3.815054
      52A1     3.821637    27B2     3.822954    28B2     3.855925
      53A1     3.864455    43B1     3.873996    21A2     3.885896
      29B2     3.930360    22A2     3.941819    44B1     4.074074
      54A1     4.077226    55A1     4.105614    45B1     4.117709
      56A1     4.357338    46B1     4.364353    57A1    12.993322
      30B2    12.993940    23A2    12.994880    31B2    12.994990
      58A1    12.995763    47B1    12.995884    48B1    12.996136
      59A1    12.996380    24A2    12.996406    60A1    13.011271
      49B1    13.011787    25A2    13.011935    50B1    13.011957
      32B2    13.012087    26A2    13.012318    61A1    13.012461
      33B2    13.012686    51B1    13.012804    34B2    13.013221
      27A2    13.013233    62A1    13.013436    52B1    13.013597
      35B2    13.014163    63A1    13.014184    28A2    13.014349
      64A1    13.014451    53B1    13.015384    36B2    13.203713
      54B1    13.204590    37B2    13.206702    29A2    13.207078
      65A1    13.208465    66A1    13.210348    55B1    13.212843
      38B2    13.218188    39B2    13.219004    30A2    13.219008
      67A1    13.219248    56B1    13.219567    31A2    13.224344
      68A1    13.226135    69A1    13.228212    40B2    13.232271
      57B1    13.233631    32A2    13.234002    58B1    13.304968
      70A1    13.312321    59B1    13.315274

    Final Occupation by Irrep:
             A1    A2    B1    B2
    DOCC [    18,    5,   13,    7 ]
    SOCC [     0,    0,    1,    0 ]

  @DF-UKS Final Energy: -4920.98753849557943

   => Energetics <=

    Nuclear Repulsion Energy =            572.3288892399986025
    One-Electron Energy =               -8006.6085972094588215
    Two-Electron Energy =                2623.2479988647505706
    DFT Exchange-Correlation Energy =    -109.9542678508697833
    Empirical Dispersion Energy =          -0.0015615400000000
    VV10 Nonlocal Energy =                  0.0000000000000000
    Total Energy =                      -4920.9875384955785194

  UHF NO Occupations:
  HONO-2 :   13 B1 1.9994573
  HONO-1 :   18 A1 1.9897060
  HONO-0 :   14 B1 1.0000000
  LUNO+0 :   19 A1 0.0102940
  LUNO+1 :   15 B1 0.0005427
  LUNO+2 :   20 A1 0.0003466
  LUNO+3 :    6 A2 0.0002112

Computation Completed

Properties will be evaluated at   0.000000,   0.000000,   0.000000 [a0]

Properties computed using the SCF density matrix

  Nuclear Dipole Moment: [e a0]
     X:    -0.0000      Y:    -0.0000      Z:     0.0000

  Electronic Dipole Moment: [e a0]
     X:     0.0000      Y:     0.0000      Z:     0.1802

  Dipole Moment: [e a0]
     X:    -0.0000      Y:    -0.0000      Z:     0.1802     Total:     0.1802

  Dipole Moment: [D]
     X:    -0.0000      Y:    -0.0000      Z:     0.4581     Total:     0.4581

*** tstop() called on bp1-compute00162.data.bp.acrc.priv at Thu Oct 28 15:28:00 2021
Module time:
	user time   =     473.33 seconds =       7.89 minutes
	system time =      22.17 seconds =       0.37 minutes
	total time  =         22 seconds =       0.37 minutes
Total time:
	user time   =     473.33 seconds =       7.89 minutes
	system time =      22.17 seconds =       0.37 minutes
	total time  =         22 seconds =       0.37 minutes

    Psi4 stopped on: Thursday, 28 October 2021 03:28PM
    Psi4 wall time for execution: 0:00:21.63

*** Psi4 exiting successfully. Buy a developer a beer!
