                               Psi4 1.4.1 release

  ==> Input File <==

--------------------------------------------------------------------------
memory 144 GB

molecule {
2 2
Cu      -0.000000    1.387730   -0.507533
Cu       1.201809   -0.693865   -0.507533
Cu      -1.201809   -0.693865   -0.507533
Cu       0.000000    0.000000    1.576640
H        0.000000    0.000000   -1.567185
 }

set reference uks
set basis Def2-TZVPPD

energy("M11-D3BJ")
--------------------------------------------------------------------------

    Molecular point group: cs

    Geometry (in Angstrom), charge = 2, multiplicity = 2:

       Center              X                  Y                   Z               Mass
    ------------   -----------------  -----------------  -----------------  -----------------
         CU          -1.387730000000     0.514739732039     0.000000000000    62.929597720000
         CU           0.693865000000     0.514739732039     1.201809000000    62.929597720000
         CU           0.693865000000     0.514739732039    -1.201809000000    62.929597720000
         CU           0.000000000000    -1.569433267961     0.000000000000    62.929597720000
         H            0.000000000000     1.574391732039     0.000000000000     1.007825032230

  Charge       = 2
  Multiplicity = 2
  Basis Set: DEF2-TZVPPD
    Blend: DEF2-TZVPPD
  Basis Set: (DEF2-TZVPPD AUX)
    Blend: DEF2-UNIVERSAL-JKFIT

    Orbital Energies [Eh]
    ---------------------

    Alpha Occupied:

       1App -324.346395     1Ap  -324.346395     2Ap  -324.346388
       3Ap  -324.323692     2App  -39.474976     4Ap   -39.474973
       5Ap   -39.474910     6Ap   -39.450320     3App  -34.741258
       7Ap   -34.741255     8Ap   -34.741241     4App  -34.740836
       9Ap   -34.740834    10Ap   -34.740825     5App  -34.739959
      11Ap   -34.739942     6App  -34.739940    12Ap   -34.716255
       7App  -34.715919    13Ap   -34.715918    14Ap    -4.833078
       8App   -4.832629    15Ap    -4.832627    16Ap    -4.808155
      17Ap    -3.358284     9App   -3.355431    18Ap    -3.355428
      19Ap    -3.354249    10App   -3.353808    20Ap    -3.353805
      11App   -3.352350    21Ap    -3.352349    12App   -3.351482
      22Ap    -3.329012    23Ap    -3.327577    13App   -3.327576
      24Ap    -0.947536    25Ap    -0.881047    26Ap    -0.851593
      14App   -0.851590    15App   -0.843872    27Ap    -0.843866
      28Ap    -0.841367    29Ap    -0.828661    16App   -0.828660
      17App   -0.818931    30Ap    -0.818923    31Ap    -0.817782
      18App   -0.815830    32Ap    -0.813212    19App   -0.813210
      20App   -0.798869    33Ap    -0.798863    21App   -0.793797
      34Ap    -0.787779    35Ap    -0.785795    22App   -0.785787
      36Ap    -0.655307

    Alpha Virtual:

      23App   -0.379495    37Ap    -0.379492    38Ap    -0.309849
      39Ap    -0.293916    24App   -0.266477    40Ap    -0.266477
      25App   -0.262601    41Ap    -0.262588    42Ap    -0.204812
      26App   -0.197885    43Ap    -0.197879    27App   -0.172326
      28App   -0.166227    44Ap    -0.166225    45Ap    -0.158503
      46Ap    -0.146581    29App   -0.131047    47Ap    -0.131036
      48Ap    -0.127193    30App   -0.124507    49Ap    -0.124505
      50Ap    -0.109399    31App   -0.092079    51Ap    -0.092072
      32App   -0.054448    52Ap    -0.054403    53Ap    -0.052259
      33App   -0.040052    54Ap    -0.040047    34App   -0.038879
      55Ap    -0.021329    35App   -0.020751    56Ap    -0.020750
      36App    0.002002    57Ap     0.002002    58Ap     0.003238
      37App    0.009235    59Ap     0.009239    38App    0.009897
      60Ap     0.020700    61Ap     0.051331    39App    0.062490
      62Ap     0.062494    40App    0.067386    63Ap     0.067388
      64Ap     0.095365    41App    0.131613    65Ap     0.131616
      42App    0.150622    43App    0.156960    66Ap     0.156966
      67Ap     0.165601    44App    0.187549    68Ap     0.187595
      69Ap     0.325316    70Ap     0.400223    45App    0.415262
      71Ap     0.415331    46App    0.426862    72Ap     0.426870
      73Ap     0.433623    47App    0.491366    74Ap     0.491373
      75Ap     0.515202    48App    0.522291    76Ap     0.522307
      77Ap     0.570516    49App    0.591918    50App    0.607548
      78Ap     0.607572    79Ap     0.616929    51App    0.616944
      80Ap     0.653371    52App    0.667872    81Ap     0.667872
      53App    0.709681    54App    0.723608    82Ap     0.723609
      83Ap     0.756992    55App    0.764067    84Ap     0.764073
      85Ap     0.910590    56App    0.910666    86Ap     0.933030
      87Ap     0.941360    57App    0.941464    58App    0.965013
      88Ap     1.081453    59App    1.081938    89Ap     1.130307
      90Ap     2.392342    60App    2.654148    91Ap     2.654358
      61App    2.685926    92Ap     2.686014    93Ap     2.690211
      94Ap     2.708305    62App    2.751525    95Ap     2.751700
      63App    2.829780    96Ap     2.829993    97Ap     2.842256
      64App    2.853607    98Ap     2.853624    65App    2.898658
      66App    2.970192    99Ap     2.970216   100Ap     2.978647
     101Ap     3.060007   102Ap     3.115860   103Ap     3.125030
      67App    3.125050    68App    3.137769   104Ap     3.137830
      69App    3.142628   105Ap     3.142658    70App    3.142689
      71App    3.143989    72App    3.145626   106Ap     3.145639
     107Ap     3.148014   108Ap     3.160987    73App    3.160988
      74App    3.161347   109Ap     3.172296    75App    3.175269
     110Ap     3.175271   111Ap     3.180414   112Ap     3.188861
      76App    3.188867    77App    3.196203   113Ap     3.285684
     114Ap     3.321235    78App    3.321261   115Ap     3.354228
      79App    3.357159   116Ap     3.357626   117Ap     3.386990
      80App    3.387016    81App    3.456528   118Ap     3.461998
      82App    3.462058   119Ap     3.477096   120Ap     3.490476
      83App    3.490511   121Ap     3.545171    84App    3.546070
     122Ap     3.574487   123Ap     3.591753    85App    3.630177
     124Ap     3.630243    86App    3.662160   125Ap     3.662199
      87App    3.680828   126Ap     3.732059    88App    3.732192
     127Ap     3.757682   128Ap     4.027714    89App    4.163272
     129Ap     4.163888   130Ap     4.417546    90App    4.465826
     131Ap     4.466217    91App   12.570149   132Ap    12.571056
      92App   12.571066   133Ap    12.571716    93App   12.571773
     134Ap    12.572109    94App   12.572236   135Ap    12.572291
      95App   12.572485   136Ap    12.572643    96App   12.572747
     137Ap    12.572986    97App   12.573041   138Ap    12.573084
      98App   12.573279   139Ap    12.573663    99App   12.574219
     140Ap    12.574258   100App   12.574868   141Ap    12.574953
     101App   12.575019   142Ap    12.575126   102App   12.575353
     143Ap    12.575479   144Ap    12.577229   103App   12.577235
     145Ap    12.578598   146Ap    12.597109   147Ap    12.597326
     104App   12.597394   105App   12.597448   148Ap    12.597747
     106App   12.597779   149Ap    12.598041   150Ap    12.598168
     107App   12.598258   108App   12.781772   151Ap    12.783915
     109App   12.783928   152Ap    12.785313   110App   12.785751
     111App   12.788270   153Ap    12.788282   154Ap    12.790645
     112App   12.790676   113App   12.792319   155Ap    12.792324
     156Ap    12.798512   114App   12.800887   157Ap    12.800889
     115App   12.808131   158Ap    12.808351   159Ap    12.812347
     116App   12.812372   160Ap    12.813792   161Ap    12.840179
     162Ap    12.847105   117App   12.847144   118App   12.852428
     163Ap    12.862938   119App   12.862969   120App   12.937583
     164Ap    12.937595   165Ap    13.020676

    Beta Occupied:

       1App -324.346303     1Ap  -324.346303     2Ap  -324.346296
       3Ap  -324.322854     2App  -39.472725     4Ap   -39.472723
       5Ap   -39.472659     6Ap   -39.450218     3App  -34.739624
       7Ap   -34.739607     4App  -34.739605     5App  -34.738666
       8Ap   -34.738665     9Ap   -34.738648     6App  -34.738344
      10Ap   -34.738342    11Ap   -34.738327    12Ap   -34.716666
       7App  -34.716209    13Ap   -34.716209    14Ap    -4.829601
       8App   -4.829152    15Ap    -4.829151    16Ap    -4.806106
      17Ap    -3.353028     9App   -3.351856    18Ap    -3.351856
      10App   -3.350050    19Ap    -3.349256    11App   -3.349256
      20Ap    -3.348244    12App   -3.347969    21Ap    -3.347969
      22Ap    -3.328687    23Ap    -3.327209    13App   -3.327208
      24Ap    -0.923103    25Ap    -0.870729    26Ap    -0.849797
      14App   -0.849795    15App   -0.838945    27Ap    -0.838942
      28Ap    -0.836313    16App   -0.826384    29Ap    -0.826384
      17App   -0.814059    30Ap    -0.811779    18App   -0.811767
      31Ap    -0.807979    19App   -0.800575    32Ap    -0.800570
      20App   -0.798019    33Ap    -0.798015    21App   -0.791544
      34Ap    -0.780353    22App   -0.780341    35Ap    -0.777723

    Beta Virtual:

      36Ap    -0.426795    23App   -0.379121    37Ap    -0.379119
      38Ap    -0.315806    39Ap    -0.305819    24App   -0.277519
      40Ap    -0.277509    25App   -0.276280    41Ap    -0.276277
      42Ap    -0.227983    43Ap    -0.214750    26App   -0.214748
      27App   -0.193635    44Ap    -0.193631    28App   -0.188375
      45Ap    -0.176389    46Ap    -0.153854    47Ap    -0.149033
      29App   -0.142180    48Ap    -0.142169    30App   -0.131294
      49Ap    -0.131293    50Ap    -0.122582    31App   -0.119396
      51Ap    -0.119392    32App   -0.066696    52Ap    -0.066651
      53Ap    -0.065840    33App   -0.050926    54Ap    -0.050923
      55Ap    -0.048653    34App   -0.046798    35App   -0.038486
      56Ap    -0.038484    36App   -0.026921    57Ap    -0.026915
      37App   -0.019480    58Ap    -0.019479    38App   -0.015061
      59Ap    -0.004416    60Ap     0.014884    61Ap     0.033271
      39App    0.047644    62Ap     0.047650    40App    0.052436
      63Ap     0.052438    64Ap     0.070853    41App    0.114402
      65Ap     0.114402    42App    0.141164    66Ap     0.141171
      43App    0.142943    67Ap     0.158804    44App    0.177699
      68Ap     0.177732    69Ap     0.324442    70Ap     0.398359
      45App    0.408191    71Ap     0.408266    46App    0.421054
      72Ap     0.421064    73Ap     0.427094    47App    0.484964
      74Ap     0.484966    75Ap     0.508237    48App    0.518608
      76Ap     0.518616    77Ap     0.567765    49App    0.584877
      50App    0.601612    78Ap     0.601625    79Ap     0.612352
      51App    0.612379    80Ap     0.659074    52App    0.670987
      81Ap     0.670998    53App    0.708784    54App    0.724876
      82Ap     0.724876    83Ap     0.758941    55App    0.765425
      84Ap     0.765436    85Ap     0.916727    56App    0.916804
      86Ap     0.930264    87Ap     0.937395    57App    0.937519
      58App    0.963990    88Ap     1.090021    59App    1.090548
      89Ap     1.136390    90Ap     2.377620    60App    2.666364
      91Ap     2.666545    61App    2.696286    92Ap     2.696347
      93Ap     2.707326    94Ap     2.726830    62App    2.771092
      95Ap     2.771279    63App    2.844729    96Ap     2.844997
      97Ap     2.845068    64App    2.853768    98Ap     2.853784
      65App    2.897982    66App    2.974298    99Ap     2.974347
     100Ap     2.981064   101Ap     3.065678   102Ap     3.117265
     103Ap     3.125999    67App    3.126010    68App    3.142401
     104Ap     3.142452    69App    3.143431    70App    3.143634
     105Ap     3.143671    71App    3.146026    72App    3.146124
     106Ap     3.146133   107Ap     3.149572    73App    3.163076
      74App    3.163825   108Ap     3.163843   109Ap     3.174258
      75App    3.177524   110Ap     3.177528   111Ap     3.182268
      76App    3.190219   112Ap     3.190226    77App    3.195900
     113Ap     3.286225   114Ap     3.322671    78App    3.322691
      79App    3.378052   115Ap     3.378511   116Ap     3.380817
     117Ap     3.388577    80App    3.388578    81App    3.456539
     118Ap     3.464683    82App    3.464711   119Ap     3.491458
      83App    3.491466   120Ap     3.493765   121Ap     3.571195
      84App    3.572187   122Ap     3.583836   123Ap     3.603581
      85App    3.636694   124Ap     3.636757    86App    3.663394
     125Ap     3.663433    87App    3.681369   126Ap     3.738027
      88App    3.738203   127Ap     3.764596   128Ap     4.033360
      89App    4.196384   129Ap     4.196497   130Ap     4.445420
      90App    4.502387   131Ap     4.503022   132Ap    12.571634
      91App   12.571776    92App   12.571806   133Ap    12.571860
     134Ap    12.572835    93App   12.572856    94App   12.573650
      95App   12.573769   135Ap    12.573839   136Ap    12.573958
     137Ap    12.574016    96App   12.574041    97App   12.574262
     138Ap    12.574589    98App   12.574698   139Ap    12.574944
      99App   12.575121   100App   12.575229   140Ap    12.575980
     101App   12.576039   141Ap    12.576192   142Ap    12.576433
     102App   12.576538   143Ap    12.577804   103App   12.582438
     144Ap    12.582449   145Ap    12.583850   146Ap    12.596874
     104App   12.597074   147Ap    12.597158   105App   12.597172
     148Ap    12.597601   149Ap    12.597776   106App   12.597809
     150Ap    12.597884   107App   12.597912   108App   12.782611
     151Ap    12.785588   109App   12.785595   152Ap    12.785962
     110App   12.788908   153Ap    12.788920   111App   12.790360
     154Ap    12.791312   112App   12.791336   155Ap    12.795262
     113App   12.795267   156Ap    12.799350   114App   12.805110
     157Ap    12.805116   115App   12.806818   158Ap    12.807360
     159Ap    12.810822   116App   12.810840   160Ap    12.813024
     161Ap    12.845139   162Ap    12.847352   117App   12.847393
     118App   12.852346   163Ap    12.864333   119App   12.864364
     120App   12.943905   164Ap    12.943914   165Ap    13.026345

    Final Occupation by Irrep:
             Ap   App
    DOCC [    35,   22 ]
    SOCC [     1,    0 ]

  @DF-UKS Final Energy: -6561.32205615282419

   => Energetics <=

    Nuclear Repulsion Energy =           1119.9202327796770078
    One-Electron Energy =              -11340.1664317107133684
    Two-Electron Energy =                3805.6007340413993916
    DFT Exchange-Correlation Energy =    -146.6733213131872731
    Empirical Dispersion Energy =          -0.0032699500000000
    VV10 Nonlocal Energy =                  0.0000000000000000
    Total Energy =                      -6561.3220561528232793

  UHF NO Occupations:
  HONO-2 :   34 Ap 1.9986347
  HONO-1 :   35 Ap 1.9976764
  HONO-0 :   36 Ap 1.0000000
  LUNO+0 :   37 Ap 0.0023236
  LUNO+1 :   38 Ap 0.0013653
  LUNO+2 :   23App 0.0013648
  LUNO+3 :   39 Ap 0.0002238

Computation Completed

Properties will be evaluated at   0.000000,   0.000000,   0.000000 [a0]

Properties computed using the SCF density matrix

  Nuclear Dipole Moment: [e a0]
     X:    -0.0000      Y:     1.5934      Z:     0.0000

  Electronic Dipole Moment: [e a0]
     X:     0.0001      Y:    -1.7521      Z:     0.0000

  Dipole Moment: [e a0]
     X:     0.0001      Y:    -0.1587      Z:     0.0000     Total:     0.1587

  Dipole Moment: [D]
     X:     0.0003      Y:    -0.4035      Z:     0.0000     Total:     0.4035

*** tstop() called on compute130.bc4.acrc.priv at Tue Nov  2 15:22:13 2021
Module time:
	user time   =    1294.72 seconds =      21.58 minutes
	system time =      54.47 seconds =       0.91 minutes
	total time  =         52 seconds =       0.87 minutes
Total time:
	user time   =    1294.72 seconds =      21.58 minutes
	system time =      54.47 seconds =       0.91 minutes
	total time  =         52 seconds =       0.87 minutes

    Psi4 stopped on: Tuesday, 02 November 2021 03:22PM
    Psi4 wall time for execution: 0:00:52.78

*** Psi4 exiting successfully. Buy a developer a beer!
