                               Psi4 1.4.1 release

  ==> Input File <==

--------------------------------------------------------------------------
memory 144 GB

molecule {
0 1
Cu      -0.387876   -0.085256    2.052405
Cu       1.110029    0.096858    0.214111
Cu       0.386859    0.085217   -2.052443
Cu      -1.109011   -0.096818   -0.214073
 }

set basis Def2-TZVPPD

energy("M11-D3BJ")
--------------------------------------------------------------------------

    Molecular point group: c1

    Geometry (in Angstrom), charge = 0, multiplicity = 1:

       Center              X                  Y                   Z               Mass
    ------------   -----------------  -----------------  -----------------  -----------------
         CU          -0.387876250000    -0.085256250000     2.052405000000    62.929597720000
         CU           1.110028750000     0.096857750000     0.214111000000    62.929597720000
         CU           0.386858750000     0.085216750000    -2.052443000000    62.929597720000
         CU          -1.109011250000    -0.096818250000    -0.214073000000    62.929597720000

  Charge       = 0
  Multiplicity = 1
  Basis Set: DEF2-TZVPPD
    Blend: DEF2-TZVPPD
  Basis Set: (DEF2-TZVPPD AUX)
    Blend: DEF2-UNIVERSAL-JKFIT

    Orbital Energies [Eh]
    ---------------------

    Doubly Occupied:

       1A   -323.912768     2A   -323.912762     3A   -323.894818
       4A   -323.894801     5A    -39.043487     6A    -39.043430
       7A    -39.027409     8A    -39.027368     9A    -34.309361
      10A    -34.309344    11A    -34.308754    12A    -34.308737
      13A    -34.308630    14A    -34.308618    15A    -34.293027
      16A    -34.293008    17A    -34.292441    18A    -34.292423
      19A    -34.291578    20A    -34.291561    21A     -4.399990
      22A     -4.399398    23A     -4.381452    24A     -4.381405
      25A     -2.924938    26A     -2.919780    27A     -2.919535
      28A     -2.918983    29A     -2.918897    30A     -2.918563
      31A     -2.902554    32A     -2.902320    33A     -2.900427
      34A     -2.900331    35A     -2.898276    36A     -2.898257
      37A     -0.436715    38A     -0.433179    39A     -0.419455
      40A     -0.414738    41A     -0.412031    42A     -0.409565
      43A     -0.396318    44A     -0.389499    45A     -0.379939
      46A     -0.378770    47A     -0.377280    48A     -0.373308
      49A     -0.372694    50A     -0.370197    51A     -0.365443
      52A     -0.364097    53A     -0.363820    54A     -0.359817
      55A     -0.358389    56A     -0.343121    57A     -0.328781
      58A     -0.222428

  @DF-RKS Final Energy: -6561.36363560003974

   => Energetics <=

    Nuclear Repulsion Energy =           1051.1684347552327381
    One-Electron Energy =              -11252.8539142863428424
    Two-Electron Energy =                3786.9528257009596928
    DFT Exchange-Correlation Energy =    -146.6279304098888758
    Empirical Dispersion Energy =          -0.0030513600000000
    VV10 Nonlocal Energy =                  0.0000000000000000
    Total Energy =                      -6561.3636356000397427

  Dipole Moment: [D]
     X:     0.0022      Y:     0.0002      Z:     0.0002     Total:     0.0022

*** Psi4 exiting successfully. Buy a developer a beer!
