                               Psi4 1.4.1 release

  ==> Input File <==

--------------------------------------------------------------------------
memory 144 GB

molecule {
2 1
Cu       0.253817    1.375381    0.000000
Cu       0.253817   -0.687598    1.191098
Cu       0.253817   -0.687598   -1.191098
Cu      -1.745352    0.000159    0.000000
N        2.725949   -0.000959   -0.000000
H        3.150217   -0.936878   -0.000000
H        3.150637    0.466806   -0.810419
H        3.150637    0.466806    0.810419
 }

set basis Def2-TZVPPD

energy("M11-D3BJ")
--------------------------------------------------------------------------

    Molecular point group: cs

    Geometry (in Angstrom), charge = 2, multiplicity = 1:

       Center              X                  Y                   Z               Mass
    ------------   -----------------  -----------------  -----------------  -----------------
         CU           0.306727314614     1.375362665601     0.000000000000    62.929597720000
         CU           0.306727314614    -0.687616334399     1.191098000000    62.929597720000
         CU           0.306727314614    -0.687616334399    -1.191098000000    62.929597720000
         CU          -1.692441685386     0.000140665601     0.000000000000    62.929597720000
         N            2.778859314614    -0.000977334399     0.000000000000    14.003074004430
         H            3.203127314614    -0.936896334399     0.000000000000     1.007825032230
         H            3.203547314614     0.466787665601    -0.810419000000     1.007825032230
         H            3.203547314614     0.466787665601     0.810419000000     1.007825032230

  Charge       = 2
  Multiplicity = 1
  Basis Set: DEF2-TZVPPD
    Blend: DEF2-TZVPPD
  Basis Set: (DEF2-TZVPPD AUX)
    Blend: DEF2-UNIVERSAL-JKFIT

    Orbital Energies [Eh]
    ---------------------

    Doubly Occupied:

       1App -324.293988     1Ap  -324.293986     2Ap  -324.293979
       3Ap  -324.286146     2App  -39.420756     4Ap   -39.420754
       5Ap   -39.420707     6Ap   -39.414356     3App  -34.687335
       7Ap   -34.687318     4App  -34.687316     5App  -34.686578
       8Ap   -34.686576     9Ap   -34.686564     6App  -34.686231
      10Ap   -34.686230    11Ap   -34.686223    12Ap   -34.680224
       7App  -34.680037    13Ap   -34.680037    14Ap   -14.923064
      15Ap    -4.778828    16Ap    -4.778310     8App   -4.778309
      17Ap    -4.770712    18Ap    -3.302724     9App   -3.301333
      19Ap    -3.301332    10App   -3.299369    11App   -3.298630
      20Ap    -3.298626    21Ap    -3.298615    22Ap    -3.297801
      12App   -3.297799    23Ap    -3.291614    24Ap    -3.290664
      13App   -3.290664    25Ap    -1.323612    26Ap    -0.909780
      14App   -0.909779    27Ap    -0.834133    28Ap    -0.814131
      29Ap    -0.803426    15App   -0.803425    16App   -0.793996
      30Ap    -0.793993    31Ap    -0.791140    17App   -0.781273
      32Ap    -0.781269    33Ap    -0.770459    18App   -0.763430
      19App   -0.763329    34Ap    -0.763321    20App   -0.759448
      35Ap    -0.759445    21App   -0.756860    36Ap    -0.756859
      37Ap    -0.747654    22App   -0.740375    38Ap    -0.737179
      23App   -0.737178    39Ap    -0.677721

  @DF-RKS Final Energy: -6617.38208279832907

   => Energetics <=

    Nuclear Repulsion Energy =           1311.3739657161461309
    One-Electron Energy =              -11800.9233105245075421
    Two-Electron Energy =                4022.6877746982495410
    DFT Exchange-Correlation Energy =    -150.5165866682175135
    Empirical Dispersion Energy =          -0.0039260200000000
    VV10 Nonlocal Energy =                  0.0000000000000000
    Total Energy =                      -6617.3820827983290656

  Dipole Moment: [D]
     X:     3.7268      Y:    -0.0014      Z:    -0.0000     Total:     3.7268

*** Psi4 exiting successfully. Buy a developer a beer!
