                               Psi4 1.4.1 release

  ==> Input File <==

--------------------------------------------------------------------------
memory 144 GB

molecule {
2 2
Cu      -0.967673    0.056725    1.180703
Cu      -0.972439   -0.054931   -1.177653
Cu       0.936359    1.185605   -0.057167
Cu       0.933653   -1.187345    0.053806
H        2.032882   -0.001578    0.009000
 }

set reference uks
set basis Def2-TZVPPD

energy("M11-D3BJ")
--------------------------------------------------------------------------

    Molecular point group: c1

    Geometry (in Angstrom), charge = 2, multiplicity = 2:

       Center              X                  Y                   Z               Mass
    ------------   -----------------  -----------------  -----------------  -----------------
         CU          -0.958324640850     0.056717846605     1.180744549625    62.929597720000
         CU          -0.963090640850    -0.054938153395    -1.177611450375    62.929597720000
         CU           0.945707359150     1.185597846605    -0.057125450375    62.929597720000
         CU           0.943001359150    -1.187352153395     0.053847549625    62.929597720000
         H            2.042230359150    -0.001585153395     0.009041549625     1.007825032230

  Charge       = 2
  Multiplicity = 2
  Basis Set: DEF2-TZVPPD
    Blend: DEF2-TZVPPD
  Basis Set: (DEF2-TZVPPD AUX)
    Blend: DEF2-UNIVERSAL-JKFIT

    Orbital Energies [Eh]
    ---------------------

    Alpha Occupied:

       1A   -324.348887     2A   -324.348877     3A   -324.332431
       4A   -324.332404     5A    -39.481495     6A    -39.481457
       7A    -39.458598     8A    -39.458556     9A    -34.749194
      10A    -34.749176    11A    -34.746609    12A    -34.746595
      13A    -34.743908    14A    -34.743894    15A    -34.724773
      16A    -34.724743    17A    -34.724404    18A    -34.724385
      19A    -34.724366    20A    -34.724345    21A     -4.838149
      22A     -4.837791    23A     -4.816841    24A     -4.816459
      25A     -3.365462    26A     -3.363439    27A     -3.359577
      28A     -3.357971    29A     -3.353514    30A     -3.353221
      31A     -3.340147    32A     -3.337078    33A     -3.336847
      34A     -3.336799    35A     -3.336551    36A     -3.336547
      37A     -0.921244    38A     -0.878594    39A     -0.851861
      40A     -0.851578    41A     -0.847330    42A     -0.837239
      43A     -0.836953    44A     -0.836496    45A     -0.830236
      46A     -0.818843    47A     -0.818020    48A     -0.815682
      49A     -0.815249    50A     -0.812070    51A     -0.806413
      52A     -0.800321    53A     -0.797643    54A     -0.795765
      55A     -0.789459    56A     -0.788103    57A     -0.784368
      58A     -0.679308

    Alpha Virtual:

      59A     -0.378779    60A     -0.373562    61A     -0.321133
      62A     -0.297338    63A     -0.270841    64A     -0.267189
      65A     -0.267161    66A     -0.256843    67A     -0.202526
      68A     -0.198381    69A     -0.198038    70A     -0.171224
      71A     -0.170499    72A     -0.169995    73A     -0.165969
      74A     -0.142764    75A     -0.131705    76A     -0.130193
      77A     -0.128041    78A     -0.124810    79A     -0.120989
      80A     -0.110830    81A     -0.101962    82A     -0.097070
      83A     -0.052995    84A     -0.052968    85A     -0.052295
      86A     -0.045951    87A     -0.041404    88A     -0.037955
      89A     -0.023978    90A     -0.021793    91A     -0.018980
      92A     -0.015429    93A     -0.000584    94A     -0.000327
      95A      0.004425    96A      0.008614    97A      0.014234
      98A      0.045546    99A      0.064434   100A      0.064904
     101A      0.065060   102A      0.069430   103A      0.085204
     104A      0.101417   105A      0.110066   106A      0.137316
     107A      0.142960   108A      0.155349   109A      0.160475
     110A      0.163750   111A      0.189050   112A      0.208429
     113A      0.265634   114A      0.389950   115A      0.408158
     116A      0.411457   117A      0.425318   118A      0.449115
     119A      0.454159   120A      0.457212   121A      0.505395
     122A      0.516679   123A      0.522815   124A      0.525255
     125A      0.549870   126A      0.554072   127A      0.594149
     128A      0.602451   129A      0.604555   130A      0.631262
     131A      0.637855   132A      0.671557   133A      0.707031
     134A      0.720843   135A      0.723223   136A      0.730461
     137A      0.737481   138A      0.776795   139A      0.780698
     140A      0.865475   141A      0.918044   142A      0.933866
     143A      0.935905   144A      0.937650   145A      0.975904
     146A      0.988154   147A      1.054335   148A      1.107649
     149A      2.301028   150A      2.506383   151A      2.604099
     152A      2.670998   153A      2.696616   154A      2.703890
     155A      2.729289   156A      2.734478   157A      2.734904
     158A      2.745120   159A      2.795525   160A      2.858556
     161A      2.865204   162A      2.900716   163A      2.916586
     164A      2.952803   165A      2.968694   166A      2.998369
     167A      3.000573   168A      3.114184   169A      3.117743
     170A      3.119072   171A      3.124194   172A      3.137630
     173A      3.141622   174A      3.144550   175A      3.146741
     176A      3.148460   177A      3.149909   178A      3.152929
     179A      3.153079   180A      3.155875   181A      3.157848
     182A      3.158578   183A      3.165441   184A      3.166435
     185A      3.169149   186A      3.175185   187A      3.187219
     188A      3.188578   189A      3.196036   190A      3.222970
     191A      3.305680   192A      3.307770   193A      3.314844
     194A      3.338860   195A      3.405382   196A      3.411875
     197A      3.416589   198A      3.436397   199A      3.459671
     200A      3.477667   201A      3.480957   202A      3.504136
     203A      3.511277   204A      3.540636   205A      3.583166
     206A      3.587237   207A      3.589363   208A      3.593355
     209A      3.644200   210A      3.644217   211A      3.660830
     212A      3.681667   213A      3.691488   214A      3.741495
     215A      3.764522   216A      3.866022   217A      4.008659
     218A      4.020597   219A      4.074311   220A      4.460200
     221A      4.614427   222A     12.567680   223A     12.569425
     224A     12.569883   225A     12.570481   226A     12.570882
     227A     12.571079   228A     12.572467   229A     12.572973
     230A     12.573789   231A     12.573941   232A     12.573986
     233A     12.574049   234A     12.574763   235A     12.575099
     236A     12.575188   237A     12.575308   238A     12.575890
     239A     12.578687   240A     12.586861   241A     12.586972
     242A     12.587008   243A     12.587045   244A     12.587093
     245A     12.587395   246A     12.587423   247A     12.587562
     248A     12.587632   249A     12.587697   250A     12.587736
     251A     12.587922   252A     12.587986   253A     12.588140
     254A     12.588295   255A     12.588724   256A     12.588772
     257A     12.589355   258A     12.781145   259A     12.781486
     260A     12.785986   261A     12.786546   262A     12.788131
     263A     12.790237   264A     12.790680   265A     12.797308
     266A     12.797750   267A     12.798128   268A     12.799286
     269A     12.799982   270A     12.800148   271A     12.801387
     272A     12.804003   273A     12.804920   274A     12.806108
     275A     12.810785   276A     12.819043   277A     12.820716
     278A     12.828086   279A     12.839501   280A     12.840802
     281A     12.846431   282A     12.863377   283A     12.883700
     284A     13.028300   285A     13.041065

    Beta Occupied:

       1A   -324.348850     2A   -324.348841     3A   -324.331981
       4A   -324.331950     5A    -39.477143     6A    -39.477104
       7A    -39.458197     8A    -39.458158     9A    -34.743365
      10A    -34.743343    11A    -34.742985    12A    -34.742965
      13A    -34.742951    14A    -34.742938    15A    -34.724490
      16A    -34.724470    17A    -34.724457    18A    -34.724437
      19A    -34.724274    20A    -34.724264    21A     -4.831839
      22A     -4.831483    23A     -4.815227    24A     -4.814853
      25A     -3.353590    26A     -3.351094    27A     -3.350918
      28A     -3.350324    29A     -3.350042    30A     -3.350007
      31A     -3.338468    32A     -3.336484    33A     -3.336454
      34A     -3.336390    35A     -3.336193    36A     -3.334948
      37A     -0.884474    38A     -0.868795    39A     -0.848184
      40A     -0.845137    41A     -0.842675    42A     -0.834193
      43A     -0.833332    44A     -0.832015    45A     -0.821729
      46A     -0.813114    47A     -0.812646    48A     -0.811097
      49A     -0.808235    50A     -0.805167    51A     -0.800092
      52A     -0.799464    53A     -0.796368    54A     -0.789608
      55A     -0.780630    56A     -0.770320    57A     -0.765237

    Beta Virtual:

      58A     -0.441036    59A     -0.377203    60A     -0.373502
      61A     -0.318079    62A     -0.305402    63A     -0.277752
      64A     -0.277556    65A     -0.272445    66A     -0.266134
      67A     -0.222371    68A     -0.213312    69A     -0.203822
      70A     -0.190654    71A     -0.186774    72A     -0.185963
      73A     -0.180643    74A     -0.155035    75A     -0.148184
      76A     -0.138312    77A     -0.135332    78A     -0.130380
      79A     -0.125994    80A     -0.120495    81A     -0.113290
      82A     -0.112294    83A     -0.066686    84A     -0.062949
      85A     -0.058910    86A     -0.053786    87A     -0.047929
      88A     -0.046123    89A     -0.044728    90A     -0.036968
      91A     -0.032628    92A     -0.032151    93A     -0.022330
      94A     -0.020383    95A     -0.013592    96A     -0.006361
      97A      0.005020    98A      0.034246    99A      0.048682
     100A      0.055206   101A      0.056385   102A      0.056733
     103A      0.065351   104A      0.088775   105A      0.101365
     106A      0.127924   107A      0.129414   108A      0.139560
     109A      0.149019   110A      0.157336   111A      0.185701
     112A      0.194895   113A      0.272903   114A      0.383662
     115A      0.403016   116A      0.408771   117A      0.418752
     118A      0.445094   119A      0.452802   120A      0.454578
     121A      0.505338   122A      0.512032   123A      0.518833
     124A      0.522340   125A      0.544516   126A      0.556634
     127A      0.594150   128A      0.602506   129A      0.606766
     130A      0.623524   131A      0.639206   132A      0.671921
     133A      0.707012   134A      0.722356   135A      0.725353
     136A      0.731986   137A      0.740327   138A      0.777753
     139A      0.785051   140A      0.878162   141A      0.929282
     142A      0.933534   143A      0.938216   144A      0.945858
     145A      0.977223   146A      0.985255   147A      1.065515
     148A      1.122499   149A      2.303468   150A      2.531355
     151A      2.631745   152A      2.673718   153A      2.713803
     154A      2.719796   155A      2.735442   156A      2.745201
     157A      2.771943   158A      2.778566   159A      2.807856
     160A      2.864073   161A      2.866893   162A      2.912870
     163A      2.918222   164A      2.957036   165A      2.973069
     166A      3.003345   167A      3.009591   168A      3.118449
     169A      3.118725   170A      3.120875   171A      3.125777
     172A      3.138102   173A      3.143505   174A      3.145401
     175A      3.148029   176A      3.149665   177A      3.151630
     178A      3.154071   179A      3.154170   180A      3.157298
     181A      3.159197   182A      3.159436   183A      3.166907
     184A      3.167712   185A      3.171735   186A      3.176331
     187A      3.190606   188A      3.191699   189A      3.196535
     190A      3.228152   191A      3.309967   192A      3.310526
     193A      3.317506   194A      3.382643   195A      3.407186
     196A      3.414278   197A      3.416883   198A      3.442953
     199A      3.461991   200A      3.478937   201A      3.481098
     202A      3.509981   203A      3.542577   204A      3.552109
     205A      3.583904   206A      3.591401   207A      3.606122
     208A      3.619967   209A      3.651107   210A      3.662052
     211A      3.673338   212A      3.690581   213A      3.701289
     214A      3.788847   215A      3.818104   216A      3.919100
     217A      4.016690   218A      4.027566   219A      4.088130
     220A      4.498942   221A      4.695190   222A     12.572312
     223A     12.572351   224A     12.572451   225A     12.572554
     226A     12.572902   227A     12.573109   228A     12.573725
     229A     12.574208   230A     12.576409   231A     12.576558
     232A     12.576770   233A     12.577071   234A     12.577365
     235A     12.578498   236A     12.581330   237A     12.581869
     238A     12.585531   239A     12.586978   240A     12.587050
     241A     12.587089   242A     12.587114   243A     12.587254
     244A     12.587297   245A     12.587321   246A     12.587580
     247A     12.587749   248A     12.587797   249A     12.587912
     250A     12.588152   251A     12.588525   252A     12.588606
     253A     12.588644   254A     12.588709   255A     12.589049
     256A     12.589072   257A     12.589668   258A     12.781260
     259A     12.783797   260A     12.786377   261A     12.787798
     262A     12.789502   263A     12.792568   264A     12.795772
     265A     12.796788   266A     12.797614   267A     12.798139
     268A     12.799014   269A     12.799390   270A     12.800221
     271A     12.801137   272A     12.805531   273A     12.805956
     274A     12.810961   275A     12.813199   276A     12.820271
     277A     12.822322   278A     12.828126   279A     12.841662
     280A     12.849132   281A     12.855448   282A     12.867976
     283A     12.884049   284A     13.041106   285A     13.054529

    Final Occupation by Irrep:
              A
    DOCC [    57 ]
    SOCC [     1 ]

  @DF-UKS Final Energy: -6561.31776410877046

   => Energetics <=

    Nuclear Repulsion Energy =           1106.1480243785747462
    One-Electron Energy =              -11312.6900764795045689
    Two-Electron Energy =                3791.8816872303191303
    DFT Exchange-Correlation Energy =    -146.6541317481604096
    Empirical Dispersion Energy =          -0.0032674900000000
    VV10 Nonlocal Energy =                  0.0000000000000000
    Total Energy =                      -6561.3177641087704615

  UHF NO Occupations:
  HONO-2 :   56  A 1.9982967
  HONO-1 :   57  A 1.9951155
  HONO-0 :   58  A 1.0000000
  LUNO+0 :   59  A 0.0048845
  LUNO+1 :   60  A 0.0017033
  LUNO+2 :   61  A 0.0006546
  LUNO+3 :   62  A 0.0003659

Computation Completed

Properties will be evaluated at   0.000000,   0.000000,   0.000000 [a0]

Properties computed using the SCF density matrix

  Nuclear Dipole Moment: [e a0]
     X:     2.0669      Y:    -0.0016      Z:     0.0092

  Electronic Dipole Moment: [e a0]
     X:    -2.4518      Y:     0.0023      Z:    -0.0113

  Dipole Moment: [e a0]
     X:    -0.3849      Y:     0.0007      Z:    -0.0021     Total:     0.3849

  Dipole Moment: [D]
     X:    -0.9784      Y:     0.0017      Z:    -0.0054     Total:     0.9784

*** tstop() called on compute232.bc4.acrc.priv at Tue Nov  2 15:42:39 2021
Module time:
	user time   =    1290.11 seconds =      21.50 minutes
	system time =      54.90 seconds =       0.92 minutes
	total time  =         53 seconds =       0.88 minutes
Total time:
	user time   =    1290.11 seconds =      21.50 minutes
	system time =      54.90 seconds =       0.92 minutes
	total time  =         53 seconds =       0.88 minutes

    Psi4 stopped on: Tuesday, 02 November 2021 03:42PM
    Psi4 wall time for execution: 0:00:53.17

*** Psi4 exiting successfully. Buy a developer a beer!
