                               Psi4 1.4.1 release

  ==> Input File <==

--------------------------------------------------------------------------
memory 144 GB

molecule {
2 1
Cu      -0.000001   -0.000007    1.488630
Cu       0.000001   -1.403449   -0.496203
Cu       1.215485    0.701727   -0.496214
Cu      -1.215485    0.701729   -0.496213
 }

set basis Def2-TZVPPD

energy("M11-D3BJ")
--------------------------------------------------------------------------

    Molecular point group: c1

    Geometry (in Angstrom), charge = 2, multiplicity = 1:

       Center              X                  Y                   Z               Mass
    ------------   -----------------  -----------------  -----------------  -----------------
         CU          -0.000001000000    -0.000007000000     1.488630000000    62.929597720000
         CU           0.000001000000    -1.403449000000    -0.496203000000    62.929597720000
         CU           1.215485000000     0.701727000000    -0.496214000000    62.929597720000
         CU          -1.215485000000     0.701729000000    -0.496213000000    62.929597720000

  Charge       = 2
  Multiplicity = 1
  Basis Set: DEF2-TZVPPD
    Blend: DEF2-TZVPPD
  Basis Set: (DEF2-TZVPPD AUX)
    Blend: DEF2-UNIVERSAL-JKFIT

    Orbital Energies [Eh]
    ---------------------

    Doubly Occupied:

       1A   -324.326884     2A   -324.326875     3A   -324.326870
       4A   -324.326849     5A    -39.453692     6A    -39.453685
       7A    -39.453671     8A    -39.453590     9A    -34.719705
      10A    -34.719703    11A    -34.719697    12A    -34.719687
      13A    -34.719684    14A    -34.719682    15A    -34.719666
      16A    -34.719665    17A    -34.719583    18A    -34.719575
      19A    -34.719566    20A    -34.719545    21A     -4.811216
      22A     -4.810728    23A     -4.810722    24A     -4.810715
      25A     -3.334970    26A     -3.332874    27A     -3.332874
      28A     -3.332873    29A     -3.332190    30A     -3.332188
      31A     -3.330799    32A     -3.330797    33A     -3.330792
      34A     -3.330417    35A     -3.330412    36A     -3.330411
      37A     -0.864694    38A     -0.836372    39A     -0.836369
      40A     -0.836367    41A     -0.826828    42A     -0.826826
      43A     -0.817303    44A     -0.817299    45A     -0.817296
      46A     -0.797019    47A     -0.797017    48A     -0.797010
      49A     -0.793574    50A     -0.793570    51A     -0.791818
      52A     -0.791813    53A     -0.791803    54A     -0.773434
      55A     -0.773427    56A     -0.773425    57A     -0.740640

  @DF-RKS Final Energy: -6560.77370501271344

   => Energetics <=

    Nuclear Repulsion Energy =           1098.4462396717549382
    One-Electron Energy =              -11298.7015086262672412
    Two-Electron Energy =                3786.0262843940640778
    DFT Exchange-Correlation Energy =    -146.5416003222657366
    Empirical Dispersion Energy =          -0.0031201300000000
    VV10 Nonlocal Energy =                  0.0000000000000000
    Total Energy =                      -6560.7737050127134353

  Dipole Moment: [D]
     X:    -0.0001      Y:    -0.0001      Z:     0.0002     Total:     0.0002

*** Psi4 exiting successfully. Buy a developer a beer!
