                               Psi4 1.4.1 release

  ==> Input File <==

--------------------------------------------------------------------------
memory 144 GB

molecule {
2 1
Cu       0.543145   -0.896300    1.192832
Cu       0.543145   -0.896300   -1.192832
Cu      -1.492086   -0.543328    0.000000
Cu       0.211399    1.215580   -0.000000
N        0.543145    3.129666   -0.000000
H        0.146420    3.607894   -0.818022
H        0.146420    3.607894    0.818022
H        1.542647    3.366638   -0.000000
 }

set basis Def2-TZVPPD

energy("M11-D3BJ")
--------------------------------------------------------------------------

    Molecular point group: cs

    Geometry (in Angstrom), charge = 2, multiplicity = 1:

       Center              X                  Y                   Z               Mass
    ------------   -----------------  -----------------  -----------------  -----------------
         CU           0.553481103940    -0.836716104147     1.192832000000    62.929597720000
         CU           0.553481103940    -0.836716104147    -1.192832000000    62.929597720000
         CU          -1.481749896060    -0.483744104147     0.000000000000    62.929597720000
         CU           0.221735103940     1.275163895853     0.000000000000    62.929597720000
         N            0.553481103940     3.189249895853     0.000000000000    14.003074004430
         H            0.156756103940     3.667477895853    -0.818022000000     1.007825032230
         H            0.156756103940     3.667477895853     0.818022000000     1.007825032230
         H            1.552983103940     3.426221895853     0.000000000000     1.007825032230

  Charge       = 2
  Multiplicity = 1
  Basis Set: DEF2-TZVPPD
    Blend: DEF2-TZVPPD
  Basis Set: (DEF2-TZVPPD AUX)
    Blend: DEF2-UNIVERSAL-JKFIT

    Orbital Energies [Eh]
    ---------------------

    Doubly Occupied:

       1App -324.293847     1Ap  -324.293846     2Ap  -324.293841
       3Ap  -324.276390     2App  -39.421313     4Ap   -39.421312
       5Ap   -39.421254     6Ap   -39.410323     3App  -34.687339
       4App  -34.687322     7Ap   -34.687322     5App  -34.687092
       8Ap   -34.687091     9Ap   -34.687081     6App  -34.687047
      10Ap   -34.687046    11Ap   -34.687032     7App  -34.675407
      12Ap   -34.675405    13Ap   -34.675049    14Ap   -14.930685
      15Ap    -4.778636    16Ap    -4.778134     8App   -4.778132
      17Ap    -4.765097    18Ap    -3.302042     9App   -3.300250
      19Ap    -3.300244    20Ap    -3.298942    10App   -3.298556
      21Ap    -3.298553    11App   -3.298149    12App   -3.297575
      22Ap    -3.297573    23Ap    -3.284632    13App   -3.284452
      24Ap    -3.284449    25Ap    -1.332295    26Ap    -0.918945
      14App   -0.918926    27Ap    -0.845586    28Ap    -0.812787
      15App   -0.800001    29Ap    -0.799999    30Ap    -0.798277
      16App   -0.790839    31Ap    -0.790819    32Ap    -0.785632
      17App   -0.778570    33Ap    -0.778546    18App   -0.763254
      19App   -0.760648    34Ap    -0.760634    20App   -0.757728
      35Ap    -0.757720    21App   -0.752291    36Ap    -0.752279
      22App   -0.738730    37Ap    -0.731498    23App   -0.731481
      38Ap    -0.712875    39Ap    -0.703814

  @DF-RKS Final Energy: -6617.41995461322495

   => Energetics <=

    Nuclear Repulsion Energy =           1296.6693314971132622
    One-Electron Energy =              -11771.7042419911012985
    Two-Electron Energy =                4008.1251654185739426
    DFT Exchange-Correlation Energy =    -150.5063440578106508
    Empirical Dispersion Energy =          -0.0038654800000000
    VV10 Nonlocal Energy =                  0.0000000000000000
    Total Energy =                      -6617.4199546132249452

  Dipole Moment: [D]
     X:     0.5742      Y:     3.3180      Z:     0.0000     Total:     3.3673

*** Psi4 exiting successfully. Buy a developer a beer!
