                               Psi4 1.4.1 release

  ==> Input File <==

--------------------------------------------------------------------------
memory 144 GB

molecule {
2 2
Cu      -0.000000    1.401870   -0.545062
Cu       1.214055   -0.700935   -0.545062
Cu      -1.214055   -0.700935   -0.545062
Cu       0.000000    0.000000    1.530006
H        0.000000    0.000000    3.050192
 }

set reference uks
set basis Def2-TZVPPD

energy("M11-D3BJ")
--------------------------------------------------------------------------

    Molecular point group: cs

    Geometry (in Angstrom), charge = 2, multiplicity = 2:

       Center              X                  Y                   Z               Mass
    ------------   -----------------  -----------------  -----------------  -----------------
         CU          -1.401870000000     0.531035456593     0.000000000000    62.929597720000
         CU           0.700935000000     0.531035456593     1.214055000000    62.929597720000
         CU           0.700935000000     0.531035456593    -1.214055000000    62.929597720000
         CU          -0.000000000000    -1.544032543407     0.000000000000    62.929597720000
         H           -0.000000000000    -3.064218543407     0.000000000000     1.007825032230

  Charge       = 2
  Multiplicity = 2
  Basis Set: DEF2-TZVPPD
    Blend: DEF2-TZVPPD
  Basis Set: (DEF2-TZVPPD AUX)
    Blend: DEF2-UNIVERSAL-JKFIT

    Orbital Energies [Eh]
    ---------------------

    Alpha Occupied:

       1Ap  -324.366619     1App -324.329861     2Ap  -324.329858
       3Ap  -324.329851     4Ap   -39.505280     2App  -39.456767
       5Ap   -39.456765     6Ap   -39.456710     7Ap   -34.777191
       8Ap   -34.765202     3App  -34.765201     4App  -34.722791
       9Ap   -34.722788    10Ap   -34.722781     5App  -34.722685
       6App  -34.722674    11Ap   -34.722673    12Ap   -34.722663
       7App  -34.722662    13Ap   -34.722650    14Ap    -4.860202
      15Ap    -4.814031     8App   -4.813640    16Ap    -4.813639
      17Ap    -3.394945    18Ap    -3.371901     9App   -3.371899
      19Ap    -3.337143    10App   -3.335440    20Ap    -3.335440
      21Ap    -3.334684    11App   -3.334473    22Ap    -3.334472
      12App   -3.333547    13App   -3.333327    23Ap    -3.333324
      24Ap    -0.913480    25Ap    -0.861815    14App   -0.861809
      26Ap    -0.847042    15App   -0.845568    27Ap    -0.845560
      28Ap    -0.834296    29Ap    -0.827950    16App   -0.827948
      30Ap    -0.820596    31Ap    -0.812550    17App   -0.812549
      18App   -0.799661    19App   -0.799042    32Ap    -0.799037
      20App   -0.794500    33Ap    -0.794499    21App   -0.787811
      34Ap    -0.787805    22App   -0.775518    35Ap    -0.773922
      36Ap    -0.733725

    Alpha Virtual:

      37Ap    -0.375159    23App   -0.375157    38Ap    -0.349555
      39Ap    -0.292673    24App   -0.268427    40Ap    -0.268427
      25App   -0.261209    41Ap    -0.261209    42Ap    -0.204452
      43Ap    -0.200251    26App   -0.200251    44Ap    -0.183366
      27App   -0.176361    28App   -0.173368    45Ap    -0.173368
      46Ap    -0.147164    47Ap    -0.131347    48Ap    -0.126508
      29App   -0.126506    30App   -0.124873    49Ap    -0.124871
      50Ap    -0.111080    51Ap    -0.098782    31App   -0.098776
      52Ap    -0.072066    32App   -0.053849    53Ap    -0.053837
      54Ap    -0.048588    55Ap    -0.045577    33App   -0.045572
      34App   -0.038065    35App   -0.033241    56Ap    -0.033240
      36App   -0.011834    57Ap    -0.011831    37App   -0.001565
      58Ap     0.005391    59Ap     0.005995    38App    0.006003
      60Ap     0.044897    61Ap     0.059684    39App    0.059685
      62Ap     0.064657    40App    0.064838    63Ap     0.064838
      41App    0.128228    64Ap     0.128232    42App    0.149184
      65Ap     0.150835    43App    0.156447    66Ap     0.156454
      44App    0.198904    67Ap     0.198936    68Ap     0.205347
      69Ap     0.261127    70Ap     0.362057    45App    0.420934
      71Ap     0.420941    72Ap     0.424852    46App    0.424854
      47App    0.487824    73Ap     0.487827    74Ap     0.491349
      75Ap     0.504397    76Ap     0.516729    48App    0.522784
      77Ap     0.522806    78Ap     0.572744    49App    0.572747
      50App    0.591462    51App    0.615886    79Ap     0.615900
      80Ap     0.655973    52App    0.655980    81Ap     0.688178
      82Ap     0.713921    53App    0.713925    54App    0.714370
      55App    0.741079    83Ap     0.741084    84Ap     0.742144
      56App    0.789831    85Ap     0.789856    86Ap     0.946301
      57App    0.967408    87Ap     0.967479    58App    0.973662
      59App    1.030350    88Ap     1.030367    89Ap     1.147415
      90Ap     2.307949    91Ap     2.489241    92Ap     2.639966
      60App    2.639975    93Ap     2.724894    61App    2.724932
      94Ap     2.739345    62App    2.747886    95Ap     2.747905
      96Ap     2.785393    97Ap     2.814709    63App    2.815008
      98Ap     2.886780    64App    2.886783    65App    2.919407
      66App    2.964853    99Ap     2.964868   100Ap     2.969624
     101Ap     3.026947   102Ap     3.121475   103Ap     3.132978
      67App    3.132981   104Ap     3.133824    68App    3.136480
     105Ap     3.144372    69App    3.149782   106Ap     3.149865
      70App    3.154962   107Ap     3.154976    71App    3.157404
     108Ap     3.160560    72App    3.160573    73App    3.161721
      74App    3.162601   109Ap     3.162610   110Ap     3.170025
      75App    3.170040   111Ap     3.176710    76App    3.176732
      77App    3.186603   112Ap     3.186603   113Ap     3.189403
     114Ap     3.193496    78App    3.204367    79App    3.326593
     115Ap     3.326616   116Ap     3.373858    80App    3.373862
     117Ap     3.391566   118Ap     3.395373    81App    3.395407
     119Ap     3.412965   120Ap     3.452476    82App    3.452552
      83App    3.468538    84App    3.473836   121Ap     3.473847
     122Ap     3.601211    85App    3.601792   123Ap     3.601808
      86App    3.656401   124Ap     3.656407   125Ap     3.663341
      87App    3.693658    88App    3.700505   126Ap     3.700526
     127Ap     3.721315    89App    3.721364   128Ap     3.868535
      90App    4.038461   129Ap     4.038546   130Ap     4.089177
     131Ap     4.774450   132Ap    12.556473    91App   12.556538
     133Ap    12.558354    92App   12.558410   134Ap    12.559348
      93App   12.559553   135Ap    12.561391    94App   12.561483
     136Ap    12.562136    95App   12.590036   137Ap    12.590039
     138Ap    12.590091    96App   12.590111   139Ap    12.590165
      97App   12.590219   140Ap    12.590228    98App   12.590268
      99App   12.590295   141Ap    12.590328   142Ap    12.590364
     143Ap    12.590463   100App   12.590473   144Ap    12.590500
     101App   12.590531   102App   12.590636   145Ap    12.590706
     103App   12.590808   146Ap    12.590824   104App   12.590853
     147Ap    12.590908   105App   12.591000   148Ap    12.591187
     106App   12.591358   107App   12.592573   149Ap    12.592599
     150Ap    12.592695   108App   12.769856   151Ap    12.771332
     152Ap    12.773072   109App   12.773090   110App   12.799012
     153Ap    12.799752   111App   12.799760   112App   12.800782
     154Ap    12.800806   155Ap    12.801207   156Ap    12.802873
     113App   12.802901   157Ap    12.804331   114App   12.804965
     158Ap    12.807937   159Ap    12.808854   115App   12.808885
     116App   12.811040   160Ap    12.811050   161Ap    12.817638
     117App   12.817638   162Ap    12.838358   118App   12.838404
     163Ap    12.851630   119App   12.863236   164Ap    12.870241
     120App   12.870267   165Ap    13.117273

    Beta Occupied:

       1Ap  -324.366016     1App -324.329834     2Ap  -324.329832
       3Ap  -324.329825     4Ap   -39.497704     2App  -39.456679
       5Ap   -39.456677     6Ap   -39.456622     7Ap   -34.765872
       8Ap   -34.762268     3App  -34.762267     4App  -34.722732
       9Ap   -34.722729    10Ap   -34.722722     5App  -34.722703
      11Ap   -34.722686     6App  -34.722683     7App  -34.722531
      12Ap   -34.722528    13Ap   -34.722511    14Ap    -4.848615
      15Ap    -4.813840     8App   -4.813450    16Ap    -4.813449
      17Ap    -3.370486    18Ap    -3.364206     9App   -3.364204
      19Ap    -3.336764    10App   -3.335319    20Ap    -3.335319
      21Ap    -3.334527    11App   -3.334369    22Ap    -3.334367
      12App   -3.333542    13App   -3.333039    23Ap    -3.333036
      24Ap    -0.870699    25Ap    -0.853249    14App   -0.853243
      15App   -0.841282    26Ap    -0.841277    27Ap    -0.840581
      28Ap    -0.827291    16App   -0.827290    29Ap    -0.819770
      30Ap    -0.811190    17App   -0.811188    31Ap    -0.810144
      18App   -0.799664    19App   -0.798546    32Ap    -0.798541
      20App   -0.794058    33Ap    -0.794056    21App   -0.785755
      34Ap    -0.785753    22App   -0.775655    35Ap    -0.738778

    Beta Virtual:

      36Ap    -0.432771    37Ap    -0.374820    23App   -0.374818
      38Ap    -0.338497    39Ap    -0.289258    24App   -0.269785
      40Ap    -0.269784    25App   -0.263986    41Ap    -0.263985
      42Ap    -0.217757    26App   -0.206586    43Ap    -0.206586
      44Ap    -0.195285    45Ap    -0.183351    27App   -0.183351
      28App   -0.176413    46Ap    -0.159879    47Ap    -0.137099
      48Ap    -0.131433    29App   -0.131431    30App   -0.125265
      49Ap    -0.125263    50Ap    -0.111030    51Ap    -0.106214
      31App   -0.106204    52Ap    -0.066494    53Ap    -0.062283
      32App   -0.060150    54Ap    -0.060139    55Ap    -0.044395
      33App   -0.044392    56Ap    -0.039681    34App   -0.039679
      35App   -0.038522    57Ap    -0.016460    36App   -0.016455
      58Ap    -0.008632    37App   -0.008628    38App   -0.002917
      59Ap     0.002771    60Ap     0.030838    61Ap     0.053257
      39App    0.053258    62Ap     0.054364    40App    0.061836
      63Ap     0.061836    64Ap     0.102869    41App    0.102872
      65Ap     0.145175    42App    0.148806    66Ap     0.148814
      43App    0.149400    44App    0.191522    67Ap     0.191552
      68Ap     0.208659    69Ap     0.271819    70Ap     0.362550
      71Ap     0.422189    45App    0.422190    46App    0.424953
      72Ap     0.424965    47App    0.488090    73Ap     0.488095
      74Ap     0.488479    75Ap     0.499731    76Ap     0.518106
      48App    0.524018    77Ap     0.524038    78Ap     0.577215
      49App    0.577221    50App    0.591174    51App    0.613687
      79Ap     0.613705    80Ap     0.669589    52App    0.669591
      81Ap     0.687761    53App    0.714234    54App    0.718237
      82Ap     0.718241    83Ap     0.745906    55App    0.745909
      84Ap     0.763192    56App    0.800061    85Ap     0.800088
      57App    0.967578    86Ap     0.967626    87Ap     0.972126
      58App    0.973597    59App    1.047358    88Ap     1.047367
      89Ap     1.187532    90Ap     2.377100    91Ap     2.538843
      92Ap     2.682413    60App    2.682429    93Ap     2.734049
      61App    2.734064    94Ap     2.741099    62App    2.772758
      95Ap     2.772771    96Ap     2.787276    63App    2.879544
      97Ap     2.879570    64App    2.919563    98Ap     2.965450
      65App    2.965507    99Ap     2.974281   100Ap     2.995409
      66App    2.995555   101Ap     3.031944   102Ap     3.121782
     103Ap     3.134548    67App    3.134549   104Ap     3.137628
      68App    3.138397   105Ap     3.146206    69App    3.150096
     106Ap     3.150180    70App    3.155543   107Ap     3.155557
      71App    3.157489   108Ap     3.161788    72App    3.161802
      73App    3.161846    74App    3.163233   109Ap     3.163244
     110Ap     3.173505    75App    3.173519    76App    3.179893
     111Ap     3.179913   112Ap     3.190556   113Ap     3.202477
      77App    3.204336   114Ap     3.217477    78App    3.217643
      79App    3.327980   115Ap     3.328001   116Ap     3.396651
      80App    3.396683   117Ap     3.397660   118Ap     3.415483
     119Ap     3.449197    81App    3.449267    82App    3.468426
      83App    3.472955   120Ap     3.472963   121Ap     3.531389
      84App    3.531395    85App    3.612435   122Ap     3.612454
     123Ap     3.613430    86App    3.658138   124Ap     3.658148
     125Ap     3.672379    87App    3.693825   126Ap     3.710495
      88App    3.710521   127Ap     3.886143    89App    3.886164
     128Ap     3.985169    90App    4.041260   129Ap     4.041308
     130Ap     4.108375   131Ap     4.890919    91App   12.559269
     132Ap    12.559807   133Ap    12.561320    92App   12.561345
     134Ap    12.567456    93App   12.567491   135Ap    12.574952
      94App   12.575218   136Ap    12.580948   137Ap    12.590017
      95App   12.590120    96App   12.590150   138Ap    12.590162
     139Ap    12.590232   140Ap    12.590307    97App   12.590330
     141Ap    12.590387    98App   12.590460    99App   12.590466
     142Ap    12.590469   100App   12.590474   143Ap    12.590511
     101App   12.590556   102App   12.590601   144Ap    12.590656
     103App   12.590773   104App   12.590806   145Ap    12.590836
     146Ap    12.590895   147Ap    12.590991   105App   12.591013
     148Ap    12.591201   106App   12.591440   149Ap    12.592661
     107App   12.592661   150Ap    12.592779   108App   12.768100
     151Ap    12.769586   152Ap    12.772826   109App   12.772842
     110App   12.798905   153Ap    12.799858   111App   12.799866
     112App   12.800720   154Ap    12.800745   155Ap    12.801270
     156Ap    12.802856   113App   12.802884   157Ap    12.804615
     114App   12.804788   158Ap    12.808399   159Ap    12.809156
     115App   12.809187   116App   12.811799   160Ap    12.811817
     117App   12.819819   161Ap    12.819822   162Ap    12.851957
     163Ap    12.853439   118App   12.853485   119App   12.863484
     164Ap    12.874698   120App   12.874734   165Ap    13.141333

    Final Occupation by Irrep:
             Ap   App
    DOCC [    35,   22 ]
    SOCC [     1,    0 ]

  @DF-UKS Final Energy: -6561.29257963896634

   => Energetics <=

    Nuclear Repulsion Energy =           1105.0271635941123805
    One-Electron Energy =              -11310.6658661923447653
    Two-Electron Energy =                3790.9786542860229019
    DFT Exchange-Correlation Energy =    -146.6292690567566979
    Empirical Dispersion Energy =          -0.0032622700000000
    VV10 Nonlocal Energy =                  0.0000000000000000
    Total Energy =                      -6561.2925796389672541

  UHF NO Occupations:
  HONO-2 :   34 Ap 1.9997864
  HONO-1 :   35 Ap 1.9978634
  HONO-0 :   36 Ap 1.0000000
  LUNO+0 :   37 Ap 0.0021366
  LUNO+1 :   38 Ap 0.0002136
  LUNO+2 :   23App 0.0001125
  LUNO+3 :   39 Ap 0.0001124

Computation Completed

Properties will be evaluated at   0.000000,   0.000000,   0.000000 [a0]

Properties computed using the SCF density matrix

  Nuclear Dipole Moment: [e a0]
     X:    -0.0000      Y:    -3.1012      Z:    -0.0000

  Electronic Dipole Moment: [e a0]
     X:     0.0001      Y:     3.2746      Z:     0.0000

  Dipole Moment: [e a0]
     X:     0.0001      Y:     0.1734      Z:    -0.0000     Total:     0.1734

  Dipole Moment: [D]
     X:     0.0002      Y:     0.4407      Z:    -0.0000     Total:     0.4407

*** tstop() called on compute404.bc4.acrc.priv at Tue Nov  2 11:08:33 2021
Module time:
	user time   =    1476.88 seconds =      24.61 minutes
	system time =      57.99 seconds =       0.97 minutes
	total time  =         59 seconds =       0.98 minutes
Total time:
	user time   =    1476.88 seconds =      24.61 minutes
	system time =      57.99 seconds =       0.97 minutes
	total time  =         59 seconds =       0.98 minutes

    Psi4 stopped on: Tuesday, 02 November 2021 11:08AM
    Psi4 wall time for execution: 0:00:58.46

*** Psi4 exiting successfully. Buy a developer a beer!
