                               Psi4 1.4.1 release

  ==> Input File <==

--------------------------------------------------------------------------
memory 144 GB

molecule {
0 2
F        0.000000    0.000000    0.000000
 }

set reference uks
set basis Def2-TZVPPD

energy("M11-D3BJ")
--------------------------------------------------------------------------

    Molecular point group: d2h
    Geometry (in Angstrom), charge = 0, multiplicity = 2:

       Center              X                  Y                   Z               Mass
    ------------   -----------------  -----------------  -----------------  -----------------
         F            0.000000000000     0.000000000000     0.000000000000    18.998403162730

  Charge       = 0
  Multiplicity = 2
  Basis Set: DEF2-TZVPPD
    Blend: DEF2-TZVPPD
  Basis Set: (DEF2-TZVPPD AUX)
    Blend: DEF2-UNIVERSAL-JKFIT

    Orbital Energies [Eh]
    ---------------------

    Alpha Occupied:

       1Ag   -25.135599     2Ag    -1.363273     1B1u   -0.691473
       1B3u   -0.614364     1B2u   -0.614364

    Alpha Virtual:

       2B3u    0.091587     2B2u    0.091588     2B1u    0.093686
       3Ag     0.128420     4Ag     0.531673     1B2g    0.537648
       1B3g    0.537648     1B1g    0.546701     5Ag     0.546701
       3B1u    0.744086     3B3u    0.770004     3B2u    0.770004
       6Ag     0.902438     7Ag     2.215806     2B2g    2.231415
       2B3g    2.231415     2B1g    2.285357     8Ag     2.285357
       4B1u    3.189415     4B3u    3.255783     4B2u    3.255783
       9Ag     3.781616     5B1u    6.723074     5B3u    6.734630
       5B2u    6.734630     6B1u    6.777763     1Au     6.777763
       6B2u    6.841007     6B3u    6.841007    10Ag     8.210264
       3B2g    8.242535     3B3g    8.242535     3B1g    8.311507
      11Ag     8.311507    12Ag    56.251394

    Beta Occupied:

       1Ag   -25.101460     2Ag    -1.289387     1B2u   -0.588101
       1B3u   -0.588101

    Beta Virtual:

       1B1u   -0.146372     2B1u    0.079255     2B2u    0.094274
       2B3u    0.094274     3Ag     0.115179     4Ag     0.511846
       1B3g    0.532564     1B2g    0.532564     1B1g    0.546514
       5Ag     0.546514     3B2u    0.774694     3B3u    0.774694
       3B1u    0.793029     6Ag     0.917194     2B3g    2.287347
       2B2g    2.287347     2B1g    2.294657     7Ag     2.294657
       8Ag     2.304309     4B3u    3.286589     4B2u    3.286589
       4B1u    3.332874     9Ag     3.848089     5B2u    6.820780
       5B3u    6.820780     6B3u    6.873330     6B2u    6.873330
       1Au     6.876070     5B1u    6.876070     6B1u    6.939634
       3B1g    8.313911    10Ag     8.313911     3B2g    8.394707
       3B3g    8.394708    11Ag     8.436745    12Ag    56.237261

    Final Occupation by Irrep:
             Ag   B1g   B2g   B3g    Au   B1u   B2u   B3u
    DOCC [     2,    0,    0,    0,    0,    0,    1,    1 ]
    SOCC [     0,    0,    0,    0,    0,    1,    0,    0 ]

  @DF-UKS Final Energy:   -99.75050204219131

   => Energetics <=

    Nuclear Repulsion Energy =              0.0000000000000000
    One-Electron Energy =                -139.1400151283294804
    Two-Electron Energy =                  44.7541351137028727
    DFT Exchange-Correlation Energy =      -5.3646220275647005
    Empirical Dispersion Energy =           0.0000000000000000
    VV10 Nonlocal Energy =                  0.0000000000000000
    Total Energy =                        -99.7505020421913144

  UHF NO Occupations:
  HONO-2 :    1B3u 1.9999099
  HONO-1 :    2 Ag 1.9997320
  HONO-0 :    1B1u 1.0000000
  LUNO+0 :    3 Ag 0.0002680
  LUNO+1 :    2B3u 0.0000901
  LUNO+2 :    2B2u 0.0000901
  LUNO+3 :    4 Ag 0.0000002

Computation Completed

Properties will be evaluated at   0.000000,   0.000000,   0.000000 [a0]

Properties computed using the SCF density matrix

  Nuclear Dipole Moment: [e a0]
     X:     0.0000      Y:     0.0000      Z:     0.0000

  Electronic Dipole Moment: [e a0]
     X:     0.0000      Y:     0.0000      Z:     0.0000

  Dipole Moment: [e a0]
     X:     0.0000      Y:     0.0000      Z:     0.0000     Total:     0.0000

  Dipole Moment: [D]
     X:     0.0000      Y:     0.0000      Z:     0.0000     Total:     0.0000

*** tstop() called on compute404.bc4.acrc.priv at Tue Nov  2 11:06:30 2021
Module time:
	user time   =      52.34 seconds =       0.87 minutes
	system time =       2.24 seconds =       0.04 minutes
	total time  =          3 seconds =       0.05 minutes
Total time:
	user time   =      52.34 seconds =       0.87 minutes
	system time =       2.24 seconds =       0.04 minutes
	total time  =          3 seconds =       0.05 minutes

    Psi4 stopped on: Tuesday, 02 November 2021 11:06AM
    Psi4 wall time for execution: 0:00:03.52

*** Psi4 exiting successfully. Buy a developer a beer!
