                               Psi4 1.4.1 release

  ==> Input File <==

--------------------------------------------------------------------------
memory 144 GB

molecule {
0 2
H        0.000000    0.000000    0.000000
 }

set reference uks
set basis Def2-TZVPPD

energy("M11-D3BJ")
--------------------------------------------------------------------------

    Molecular point group: d2h
    Geometry (in Angstrom), charge = 0, multiplicity = 2:

       Center              X                  Y                   Z               Mass
    ------------   -----------------  -----------------  -----------------  -----------------
         H            0.000000000000     0.000000000000     0.000000000000     1.007825032230

  Charge       = 0
  Multiplicity = 2
  Basis Set: DEF2-TZVPPD
    Blend: DEF2-TZVPPD
  Basis Set: (DEF2-TZVPPD AUX)
    Blend: DEF2-UNIVERSAL-JKFIT

    Orbital Energies [Eh]
    ---------------------

    Alpha Occupied:

       1Ag    -0.427365

    Alpha Virtual:

       1B1u    0.177258     1B2u    0.177258     1B3u    0.177258
       2Ag     0.325829     2B1u    0.866617     2B3u    0.866617
       2B2u    0.866617     3Ag     2.265280     4Ag     3.106158
       1B2g    3.106158     1B1g    3.106158     1B3g    3.106158
       5Ag     3.106158     3B1u    3.658664     3B2u    3.658664
       3B3u    3.658664

    Beta Occupied:

    Beta Virtual:

       1Ag  -212.230286     1B1u   12.960561     1B3u   12.960624
       1B2u   12.960642     2Ag    35.969669     2B1u  203.399793
       2B3u  203.406074     2B2u  203.406913     3Ag   256.809516
       3B1u  259.559863     3B3u  259.573655     3B2u  259.577273
       1B2g  282.335945     1B3g  282.336783     4Ag   282.340348
       1B1g  282.342203     5Ag   282.344946

    Final Occupation by Irrep:
             Ag   B1g   B2g   B3g    Au   B1u   B2u   B3u
    DOCC [     0,    0,    0,    0,    0,    0,    0,    0 ]
    SOCC [     1,    0,    0,    0,    0,    0,    0,    0 ]

  @DF-UKS Final Energy:    -0.49785704203014

   => Energetics <=

    Nuclear Repulsion Energy =              0.0000000000000000
    One-Electron Energy =                  -0.4996909765872949
    Two-Electron Energy =                   0.1037868429252113
    DFT Exchange-Correlation Energy =      -0.1019529083680585
    Empirical Dispersion Energy =           0.0000000000000000
    VV10 Nonlocal Energy =                  0.0000000000000000
    Total Energy =                         -0.4978570420301421

  UHF NO Occupations:
  HONO-0 :    1 Ag 1.0000000
  LUNO+0 :    2 Ag 0.0000000
  LUNO+1 :    3B3u 0.0000000
  LUNO+2 :    2B3u 0.0000000
  LUNO+3 :    1B3u 0.0000000

Computation Completed

Properties will be evaluated at   0.000000,   0.000000,   0.000000 [a0]

Properties computed using the SCF density matrix

  Nuclear Dipole Moment: [e a0]
     X:     0.0000      Y:     0.0000      Z:     0.0000

  Electronic Dipole Moment: [e a0]
     X:     0.0000      Y:     0.0000      Z:     0.0000

  Dipole Moment: [e a0]
     X:     0.0000      Y:     0.0000      Z:     0.0000     Total:     0.0000

  Dipole Moment: [D]
     X:     0.0000      Y:     0.0000      Z:     0.0000     Total:     0.0000

*** tstop() called on compute495.bc4.acrc.priv at Tue Nov  2 11:06:44 2021
Module time:
	user time   =      20.54 seconds =       0.34 minutes
	system time =       0.84 seconds =       0.01 minutes
	total time  =          2 seconds =       0.03 minutes
Total time:
	user time   =      20.54 seconds =       0.34 minutes
	system time =       0.84 seconds =       0.01 minutes
	total time  =          2 seconds =       0.03 minutes

    Psi4 stopped on: Tuesday, 02 November 2021 11:06AM
    Psi4 wall time for execution: 0:00:02.37

*** Psi4 exiting successfully. Buy a developer a beer!
