                               Psi4 1.4.1 release

  ==> Input File <==

--------------------------------------------------------------------------
memory 144 GB

molecule {
0 1
N       -0.000000    0.125670    0.000000
H       -0.933163   -0.293418    0.000000
H        0.466582   -0.293138    0.808252
H        0.466582   -0.293138   -0.808252
 }

set basis Def2-TZVPPD

energy("M11-D3BJ")
--------------------------------------------------------------------------

    Molecular point group: cs

    Geometry (in Angstrom), charge = 0, multiplicity = 1:

       Center              X                  Y                   Z               Mass
    ------------   -----------------  -----------------  -----------------  -----------------
         N           -0.000000059191     0.074386050971     0.000000000000    14.003074004430
         H           -0.933163059191    -0.344701949029     0.000000000000     1.007825032230
         H            0.466581940809    -0.344421949029     0.808252000000     1.007825032230
         H            0.466581940809    -0.344421949029    -0.808252000000     1.007825032230

  Charge       = 0
  Multiplicity = 1
  Basis Set: DEF2-TZVPPD
    Blend: DEF2-TZVPPD
  Basis Set: (DEF2-TZVPPD AUX)
    Blend: DEF2-UNIVERSAL-JKFIT

    Orbital Energies [Eh]
    ---------------------

    Doubly Occupied:

       1Ap   -14.578547     2Ap    -0.987375     1App   -0.572465
       3Ap    -0.572421     4Ap    -0.391176

  @DF-RKS Final Energy:   -56.55860100694493

   => Energetics <=

    Nuclear Repulsion Energy =             11.8457429207498919
    One-Electron Energy =                 -99.4960709003563295
    Two-Electron Energy =                  35.0494737007270913
    DFT Exchange-Correlation Energy =      -3.9577079580655812
    Empirical Dispersion Energy =          -0.0000387700000000
    VV10 Nonlocal Energy =                  0.0000000000000000
    Total Energy =                        -56.5586010069449259

  Dipole Moment: [D]
     X:     0.0002      Y:    -1.7538      Z:     0.0000     Total:     1.7538

*** Psi4 exiting successfully. Buy a developer a beer!
