                               Psi4 1.4.1 release

  ==> Input File <==

--------------------------------------------------------------------------
memory 144 GB

molecule {
0 1
Ag       0.000000    0.000000    0.033547
H        0.000000    0.000000   -1.576706
 }

set basis Def2-TZVPPD

energy("SCAN-D3BJ")
--------------------------------------------------------------------------

    Molecular point group: c2v

    Geometry (in Angstrom), charge = 0, multiplicity = 1:

       Center              X                  Y                   Z               Mass
    ------------   -----------------  -----------------  -----------------  -----------------
         AG           0.000000000000     0.000000000000     0.015038545267   106.905091600000
         H            0.000000000000     0.000000000000    -1.595214454733     1.007825032230

  Charge       = 0
  Multiplicity = 1
  Basis Set: DEF2-TZVPPD
    Blend: DEF2-TZVPPD
  Basis Set: (DEF2-TZVPPD AUX)
    Blend: DEF2-UNIVERSAL-JKFIT

    Orbital Energies [Eh]
    ---------------------

    Doubly Occupied:

       1A1    -3.707005     2A1    -2.301461     1B2    -2.290095
       1B1    -2.290095     3A1    -0.355333     2B2    -0.298246
       2B1    -0.298246     4A1    -0.287845     1A2    -0.287844
       5A1    -0.225079

  @DF-RKS Final Energy:  -147.58850401021948

   => Energetics <=

    Nuclear Repulsion Energy =              6.2439672540464146
    One-Electron Energy =                -273.9268384789146467
    Two-Electron Energy =                 134.5787110357993583
    DFT Exchange-Correlation Energy =     -14.4842685011506003
    Empirical Dispersion Energy =          -0.0000753200000000
    VV10 Nonlocal Energy =                  0.0000000000000000
    Total Energy =                       -147.5885040102194807

  Dipole Moment: [D]
     X:     0.0000      Y:     0.0000      Z:     2.5519     Total:     2.5519

*** Psi4 exiting successfully. Buy a developer a beer!
