                               Psi4 1.4.1 release

  ==> Input File <==

--------------------------------------------------------------------------
memory 144 GB

molecule {
0 1
Ag       0.000000    0.000000    0.317712
F        0.000000    0.000000   -1.659163
 }

set basis Def2-TZVPPD

energy("SCAN-D3BJ")
--------------------------------------------------------------------------

    Molecular point group: c2v

    Geometry (in Angstrom), charge = 0, multiplicity = 1:

       Center              X                  Y                   Z               Mass
    ------------   -----------------  -----------------  -----------------  -----------------
         AG           0.000000000000     0.000000000000     0.298303619952   106.905091600000
         F            0.000000000000     0.000000000000    -1.678571380048    18.998403162730

  Charge       = 0
  Multiplicity = 1
  Basis Set: DEF2-TZVPPD
    Blend: DEF2-TZVPPD
  Basis Set: (DEF2-TZVPPD AUX)
    Blend: DEF2-UNIVERSAL-JKFIT

    Orbital Energies [Eh]
    ---------------------

    Doubly Occupied:

       1A1   -24.390251     2A1    -3.722060     3A1    -2.314037
       1B2    -2.309398     1B1    -2.309398     4A1    -1.007443
       5A1    -0.363404     2B2    -0.330698     2B1    -0.330698
       1A2    -0.311621     6A1    -0.311618     3B2    -0.253508
       3B1    -0.253508     7A1    -0.253163

  @DF-RKS Final Energy:  -246.86342612940700

   => Energetics <=

    Nuclear Repulsion Energy =             45.7739123741106511
    One-Electron Energy =                -492.7646750594354899
    Two-Electron Energy =                 224.7582468044445534
    DFT Exchange-Correlation Energy =     -24.6308264985267016
    Empirical Dispersion Energy =          -0.0000837500000000
    VV10 Nonlocal Energy =                  0.0000000000000000
    Total Energy =                       -246.8634261294070029

  Dipole Moment: [D]
     X:     0.0000      Y:     0.0000      Z:     5.3802     Total:     5.3802

*** Psi4 exiting successfully. Buy a developer a beer!
