                               Psi4 1.4.1 release

  ==> Input File <==

--------------------------------------------------------------------------
memory 144 GB

molecule {
0 2
Ag       0.000000    0.000000    0.000000
 }

set reference uks
set basis Def2-TZVPPD

energy("SCAN-D3BJ")
--------------------------------------------------------------------------

    Molecular point group: d2h
    Geometry (in Angstrom), charge = 0, multiplicity = 2:

       Center              X                  Y                   Z               Mass
    ------------   -----------------  -----------------  -----------------  -----------------
         AG           0.000000000000     0.000000000000     0.000000000000   106.905091600000

  Charge       = 0
  Multiplicity = 2
  Basis Set: DEF2-TZVPPD
    Blend: DEF2-TZVPPD
  Basis Set: (DEF2-TZVPPD AUX)
    Blend: DEF2-UNIVERSAL-JKFIT

    Orbital Energies [Eh]
    ---------------------

    Alpha Occupied:

       1Ag    -3.680430     1B1u   -2.267211     1B3u   -2.267211
       1B2u   -2.267211     2Ag    -0.275987     1B1g   -0.275987
       1B2g   -0.275987     3Ag    -0.275987     1B3g   -0.275987
       4Ag    -0.189164

    Alpha Virtual:

       2B2u   -0.023177     2B3u   -0.023177     2B1u   -0.023177
       5Ag     0.103854     3B2u    0.204157     3B3u    0.204157
       3B1u    0.204157     6Ag     0.399343     7Ag     0.399343
       2B2g    0.399343     2B3g    0.399343     2B1g    0.399343
       4B2u    1.584983     4B3u    1.584983     1Au     1.584983
       4B1u    1.584983     5B2u    1.584983     5B3u    1.584983
       5B1u    1.584983     6B2u    1.610392     6B3u    1.610392
       6B1u    1.610392     8Ag     1.880491     3B1g    2.035748
       3B2g    2.035748     9Ag     2.035748     3B3g    2.035748
      10Ag     2.035748     7B1u    4.878901     7B3u    4.878901
       7B2u    4.878901     2Au     4.878901     8B1u    4.878901
       8B3u    4.878901     8B2u    4.878901    11Ag     5.636470
       4B1g    5.636470    12Ag     5.636470     4B3g    5.636470
       5B1g    5.636470     4B2g    5.636470     5B3g    5.636470
      13Ag     5.636470     5B2g    5.636470    14Ag    33.410031
      15Ag   110.851654

    Beta Occupied:

       1Ag    -3.679504     1B3u   -2.269017     1B2u   -2.269017
       1B1u   -2.269017     1B2g   -0.268364     2Ag    -0.268364
       1B3g   -0.268364     1B1g   -0.268364     3Ag    -0.268364

    Beta Virtual:

       4Ag    -0.127818     2B3u    0.011392     2B1u    0.011392
       2B2u    0.011392     5Ag     0.109572     3B3u    0.209591
       3B1u    0.209591     3B2u    0.209591     6Ag     0.422517
       2B1g    0.422517     2B2g    0.422517     2B3g    0.422517
       7Ag     0.422517     4B1u    1.591511     4B3u    1.591511
       1Au     1.591511     4B2u    1.591511     5B1u    1.591511
       5B3u    1.591511     5B2u    1.591511     6B3u    1.601461
       6B2u    1.601461     6B1u    1.601461     8Ag     1.873374
       3B1g    2.038405     9Ag     2.038405     3B2g    2.038405
       3B3g    2.038405    10Ag     2.038405     7B2u    4.884610
       7B3u    4.884610     2Au     4.884610     7B1u    4.884610
       8B3u    4.884610     8B2u    4.884610     8B1u    4.884611
       4B1g    5.643053    11Ag     5.643053     4B3g    5.643054
       4B2g    5.643054    12Ag     5.643054     5B1g    5.643054
       5B2g    5.643054    13Ag     5.643054     5B3g    5.643054
      14Ag    33.373136    15Ag   110.844781

    Final Occupation by Irrep:
             Ag   B1g   B2g   B3g    Au   B1u   B2u   B3u
    DOCC [     3,    1,    1,    1,    0,    1,    1,    1 ]
    SOCC [     1,    0,    0,    0,    0,    0,    0,    0 ]

  @DF-UKS Final Energy:  -146.99780782318894

   => Energetics <=

    Nuclear Repulsion Energy =              0.0000000000000000
    One-Electron Energy =                -261.2668442702921539
    Two-Electron Energy =                 128.4406160537894550
    DFT Exchange-Correlation Energy =     -14.1715796066862332
    Empirical Dispersion Energy =           0.0000000000000000
    VV10 Nonlocal Energy =                  0.0000000000000000
    Total Energy =                       -146.9978078231889356

  UHF NO Occupations:
  HONO-2 :    1B1g 1.9995446
  HONO-1 :    3 Ag 1.9995446
  HONO-0 :    4 Ag 1.0000000
  LUNO+0 :    5 Ag 0.0004554
  LUNO+1 :    2B1g 0.0004554
  LUNO+2 :    2B3g 0.0004554
  LUNO+3 :    2B2g 0.0004554

Computation Completed

Properties will be evaluated at   0.000000,   0.000000,   0.000000 [a0]

Properties computed using the SCF density matrix

  Nuclear Dipole Moment: [e a0]
     X:     0.0000      Y:     0.0000      Z:     0.0000

  Electronic Dipole Moment: [e a0]
     X:     0.0000      Y:     0.0000      Z:     0.0000

  Dipole Moment: [e a0]
     X:     0.0000      Y:     0.0000      Z:     0.0000     Total:     0.0000

  Dipole Moment: [D]
     X:     0.0000      Y:     0.0000      Z:     0.0000     Total:     0.0000

*** tstop() called on compute495.bc4.acrc.priv at Tue Nov  2 11:11:41 2021
Module time:
	user time   =      77.05 seconds =       1.28 minutes
	system time =       2.76 seconds =       0.05 minutes
	total time  =          5 seconds =       0.08 minutes
Total time:
	user time   =      77.05 seconds =       1.28 minutes
	system time =       2.76 seconds =       0.05 minutes
	total time  =          5 seconds =       0.08 minutes

    Psi4 stopped on: Tuesday, 02 November 2021 11:11AM
    Psi4 wall time for execution: 0:00:06.00

*** Psi4 exiting successfully. Buy a developer a beer!
