                               Psi4 1.4.1 release

  ==> Input File <==

--------------------------------------------------------------------------
memory 144 GB

molecule {
0 1
Ag       0.000000    0.000000    1.261821
Ag       0.000000    0.000000   -1.261821
 }

set basis Def2-TZVPPD

energy("SCAN-D3BJ")
--------------------------------------------------------------------------

    Molecular point group: d2h

    Geometry (in Angstrom), charge = 0, multiplicity = 1:

       Center              X                  Y                   Z               Mass
    ------------   -----------------  -----------------  -----------------  -----------------
         AG           0.000000000000     0.000000000000     1.261821000000   106.905091600000
         AG           0.000000000000     0.000000000000    -1.261821000000   106.905091600000

  Charge       = 0
  Multiplicity = 1
  Basis Set: DEF2-TZVPPD
    Blend: DEF2-TZVPPD
  Basis Set: (DEF2-TZVPPD AUX)
    Blend: DEF2-UNIVERSAL-JKFIT

    Orbital Energies [Eh]
    ---------------------

    Doubly Occupied:

       1Ag    -3.680811     1B1u   -3.680168     2Ag    -2.274668
       2B1u   -2.267976     1B3u   -2.266656     1B2u   -2.266655
       1B2g   -2.266010     1B3g   -2.266010     3Ag    -0.313760
       2B3u   -0.293879     2B2u   -0.293879     4Ag    -0.272027
       1B1g   -0.272008     3B1u   -0.263644     1Au    -0.263624
       2B2g   -0.252973     2B3g   -0.252973     4B1u   -0.247580
       5Ag    -0.197613

  @DF-RKS Final Energy:  -294.05623870365991

   => Energetics <=

    Nuclear Repulsion Energy =             75.6973346662759781
    One-Electron Energy =                -674.0145938355321960
    Two-Electron Energy =                 332.6101255962298637
    DFT Exchange-Correlation Energy =     -28.3489032906335652
    Empirical Dispersion Energy =          -0.0002018400000000
    VV10 Nonlocal Energy =                  0.0000000000000000
    Total Energy =                       -294.0562387036599148

  Dipole Moment: [D]
     X:     0.0000      Y:     0.0000      Z:     0.0000     Total:     0.0000

*** Psi4 exiting successfully. Buy a developer a beer!
