                               Psi4 1.4.1 release

  ==> Input File <==

--------------------------------------------------------------------------
memory 144 GB

molecule {
1 1
Ag       0.000000    0.000000    0.000000
Ag       0.000000    0.000000    2.629319
Ag       0.000000    0.000000   -2.629319
 }

set basis Def2-TZVPPD

energy("SCAN-D3BJ")
--------------------------------------------------------------------------

    Molecular point group: d2h

    Geometry (in Angstrom), charge = 1, multiplicity = 1:

       Center              X                  Y                   Z               Mass
    ------------   -----------------  -----------------  -----------------  -----------------
         AG           0.000000000000     0.000000000000     0.000000000000   106.905091600000
         AG           0.000000000000     0.000000000000     2.629319000000   106.905091600000
         AG           0.000000000000     0.000000000000    -2.629319000000   106.905091600000

  Charge       = 1
  Multiplicity = 1
  Basis Set: DEF2-TZVPPD
    Blend: DEF2-TZVPPD
  Basis Set: (DEF2-TZVPPD AUX)
    Blend: DEF2-UNIVERSAL-JKFIT

    Orbital Energies [Eh]
    ---------------------

    Doubly Occupied:

       1Ag    -3.888382     1B1u   -3.888381     2Ag    -3.857539
       2B1u   -2.479690     3Ag    -2.479377     1B3u   -2.476375
       1B2u   -2.476375     1B2g   -2.476373     1B3g   -2.476373
       3B1u   -2.450272     2B3u   -2.441834     2B2u   -2.441834
       4Ag    -0.519054     2B2g   -0.493231     2B3g   -0.493231
       4B1u   -0.486129     3B3u   -0.482246     3B2u   -0.482246
       1B1g   -0.477920     5Ag    -0.477917     1Au    -0.477451
       5B1u   -0.477449     2B1g   -0.440579     6Ag    -0.440571
       3B2g   -0.439080     3B3g   -0.439080     7Ag    -0.435975
       8Ag    -0.379774

  @DF-RKS Final Energy:  -440.82069213190010

   => Energetics <=

    Nuclear Repulsion Energy =            181.6373108891218351
    One-Electron Energy =               -1135.9002512857334750
    Two-Electron Energy =                 555.7894202423613024
    DFT Exchange-Correlation Energy =     -42.3466522576498363
    Empirical Dispersion Energy =          -0.0005197200000000
    VV10 Nonlocal Energy =                  0.0000000000000000
    Total Energy =                       -440.8206921319001594

  Dipole Moment: [D]
     X:     0.0000      Y:     0.0000      Z:     0.0000     Total:     0.0000

*** Psi4 exiting successfully. Buy a developer a beer!
