                               Psi4 1.4.1 release

  ==> Input File <==

--------------------------------------------------------------------------
memory 144 GB

molecule {
1 1
Ag       0.000000    1.529877    0.000000
Ag       1.324912   -0.764938    0.000000
Ag      -1.324912   -0.764938    0.000000
 }

set basis Def2-TZVPPD

energy("SCAN-D3BJ")
--------------------------------------------------------------------------

    Molecular point group: c2v

    Geometry (in Angstrom), charge = 1, multiplicity = 1:

       Center              X                  Y                   Z               Mass
    ------------   -----------------  -----------------  -----------------  -----------------
         AG           0.000000000000     0.000000000000     1.529876666667   106.905091600000
         AG           1.324912000000     0.000000000000    -0.764938333333   106.905091600000
         AG          -1.324912000000    -0.000000000000    -0.764938333333   106.905091600000

  Charge       = 1
  Multiplicity = 1
  Basis Set: DEF2-TZVPPD
    Blend: DEF2-TZVPPD
  Basis Set: (DEF2-TZVPPD AUX)
    Blend: DEF2-UNIVERSAL-JKFIT

    Orbital Energies [Eh]
    ---------------------

    Doubly Occupied:

       1A1    -3.889494     2A1    -3.888993     1B1    -3.888987
       3A1    -2.482796     2B1    -2.479479     4A1    -2.479472
       3B1    -2.476774     5A1    -2.476759     4B1    -2.476222
       1B2    -2.474721     2B2    -2.474177     1A2    -2.474169
       6A1    -0.532136     7A1    -0.511321     5B1    -0.511313
       3B2    -0.505426     8A1    -0.491076     2A2    -0.486981
       4B2    -0.486950     6B1    -0.468701     9A1    -0.468696
       3A2    -0.464431    10A1    -0.462049     4A2    -0.462035
       7B1    -0.462020     5B2    -0.461984     8B1    -0.446064
      11A1    -0.416589

  @DF-RKS Final Energy:  -440.87380119331482

   => Energetics <=

    Nuclear Repulsion Energy =            216.2781024753185477
    One-Electron Energy =               -1204.6301424724965727
    Two-Electron Energy =                 589.8463084948103869
    DFT Exchange-Correlation Energy =     -42.3674725509471699
    Empirical Dispersion Energy =          -0.0005971400000000
    VV10 Nonlocal Energy =                  0.0000000000000000
    Total Energy =                       -440.8738011933148755

  Dipole Moment: [D]
     X:     0.0000      Y:     0.0000      Z:     0.0000     Total:     0.0000

*** Psi4 exiting successfully. Buy a developer a beer!
