                               Psi4 1.4.1 release

  ==> Input File <==

--------------------------------------------------------------------------
memory 144 GB

molecule {
0 2
Ag       0.000000    0.000000    0.000000
Ag       0.000000    0.000000    2.592532
Ag       0.000000    0.000000   -2.592532
 }

set reference uks
set basis Def2-TZVPPD

energy("SCAN-D3BJ")
--------------------------------------------------------------------------

    Molecular point group: d2h

    Geometry (in Angstrom), charge = 0, multiplicity = 2:

       Center              X                  Y                   Z               Mass
    ------------   -----------------  -----------------  -----------------  -----------------
         AG           0.000000000000     0.000000000000     0.000000000000   106.905091600000
         AG           0.000000000000     0.000000000000     2.592532000000   106.905091600000
         AG           0.000000000000     0.000000000000    -2.592532000000   106.905091600000

  Charge       = 0
  Multiplicity = 2
  Basis Set: DEF2-TZVPPD
    Blend: DEF2-TZVPPD
  Basis Set: (DEF2-TZVPPD AUX)
    Blend: DEF2-UNIVERSAL-JKFIT

    Orbital Energies [Eh]
    ---------------------

    Alpha Occupied:

       1Ag    -3.691631     1B1u   -3.691622     2Ag    -3.680848
       2B1u   -2.282935     3Ag    -2.281662     1B3u   -2.276882
       1B2u   -2.276882     1B2g   -2.276872     1B3g   -2.276872
       3B1u   -2.271250     2B3u   -2.265757     2B2u   -2.265757
       4Ag    -0.334722     2B2g   -0.305670     2B3g   -0.305670
       4B1u   -0.291032     3B3u   -0.287355     3B2u   -0.287355
       1B1g   -0.282771     5Ag    -0.282767     1Au    -0.281282
       5B1u   -0.281278     2B1g   -0.263784     6Ag    -0.263781
       3B2g   -0.252339     3B3g   -0.252339     7Ag    -0.250181
       8Ag    -0.217019     6B1u   -0.192975

    Alpha Virtual:

       9Ag    -0.096237     4B2u   -0.047050     4B3u   -0.047050
       7B1u   -0.021382     4B3g   -0.010062     4B2g   -0.010062
       5B3u    0.066813     5B2u    0.066813    10Ag     0.083379
      11Ag     0.106267     8B1u    0.119407     9B1u    0.139371
       6B3u    0.175453     6B2u    0.175453    12Ag     0.188632
       5B2g    0.210238     5B3g    0.210238     7B3u    0.255683
       7B2u    0.255683    10B1u    0.276725    13Ag     0.284321
       3B1g    0.356862    14Ag     0.356865     6B3g    0.391583
       6B2g    0.391583    11B1u    0.402125     2Au     0.402138
      12B1u    0.435123    15Ag     0.491581     4B1g    0.491613
       8B3u    0.501429     8B2u    0.501429    16Ag     0.611247
      13B1u    0.688625     7B2g    0.694915     7B3g    0.694915
      17Ag     0.756774    14B1u    1.420058     9B3u    1.518896
       9B2u    1.518896     3Au     1.568086    15B1u    1.568221
      10B3u    1.581009    10B2u    1.581009     8B2g    1.581092
       8B3g    1.581092     5B1g    1.581112    18Ag     1.581228
      19Ag     1.590477     9B2g    1.593573     9B3g    1.593573
      11B2u    1.597207    11B3u    1.597207    12B3u    1.602415
      12B2u    1.602415     4Au     1.604877    16B1u    1.605042
      13B3u    1.616648    13B2u    1.616648    17B1u    1.660668
      20Ag     1.673292    10B2g    1.677427    10B3g    1.677427
      14B3u    1.742302    14B2u    1.742302    18B1u    1.757784
      21Ag     1.887848    19B1u    1.933868    22Ag     2.021001
       6B1g    2.021027    20B1u    2.037854     5Au     2.037868
      11B2g    2.051873    11B3g    2.051873    23Ag     2.080010
       7B1g    2.080062    15B3u    2.107712    15B2u    2.107712
      24Ag     2.157438    21B1u    2.180849    12B2g    2.204282
      12B3g    2.204282    25Ag     2.358884    22B1u    2.364504
      26Ag     2.719116    23B1u    4.806009    16B3u    4.818094
      16B2u    4.818094     6Au     4.860841    24B1u    4.861339
      17B2u    4.871242    17B3u    4.871242    13B2g    4.871309
      13B3g    4.871309     8B1g    4.872782    27Ag     4.873215
      18B3u    4.884787    18B2u    4.884787     7Au     4.892096
      25B1u    4.892714    14B2g    4.915694    14B3g    4.915694
      19B3u    4.976618    19B2u    4.976618    28Ag     5.044051
      26B1u    5.201621    20B3u    5.626776    20B2u    5.626776
       8Au     5.627141    15B2g    5.627417    15B3g    5.627417
      27B1u    5.627450     9B1g    5.627510    29Ag     5.627817
      21B2u    5.628846    21B3u    5.628846    16B3g    5.628851
      16B2g    5.628851    30Ag     5.629973    28B1u    5.630112
      31Ag     5.630221    10B1g    5.630933     9Au     5.630933
      29B1u    5.632555    11B1g    5.640643    32Ag     5.641111
      17B2g    5.642526    17B3g    5.642526    18B3g    5.643765
      18B2g    5.643765    33Ag     5.646187    12B1g    5.647345
      34Ag     5.663234    35Ag    33.456226    30B1u   33.608434
      36Ag    33.993182    37Ag   110.859808    31B1u  110.907092
      38Ag   111.037225

    Beta Occupied:

       1Ag    -3.691027     1B1u   -3.691018     2Ag    -3.680949
       2B1u   -2.282791     3Ag    -2.281663     1B3u   -2.278181
       1B2u   -2.278181     1B2g   -2.278173     1B3g   -2.278173
       3B1u   -2.270893     2B3u   -2.265780     2B2u   -2.265780
       4Ag    -0.328697     2B2g   -0.301795     2B3g   -0.301795
       4B1u   -0.287044     3B3u   -0.282867     3B2u   -0.282867
       5Ag    -0.278646     1B1g   -0.278642     5B1u   -0.276818
       1Au    -0.276812     2B1g   -0.264630     6Ag    -0.264628
       3B2g   -0.252521     3B3g   -0.252521     7Ag    -0.245661
       8Ag    -0.202024

    Beta Virtual:

       6B1u   -0.155792     9Ag    -0.079234     4B3u   -0.035704
       4B2u   -0.035704     7B1u   -0.004744     4B2g    0.008708
       4B3g    0.008708     5B3u    0.066596     5B2u    0.066596
      10Ag     0.083109    11Ag     0.101794     8B1u    0.106993
       9B1u    0.137424     6B3u    0.179004     6B2u    0.179004
      12Ag     0.186673     5B2g    0.212029     5B3g    0.212029
       7B3u    0.255149     7B2u    0.255149    10B1u    0.270319
      13Ag     0.290138    14Ag     0.360400     3B1g    0.360405
       6B2g    0.398506     6B3g    0.398506     2Au     0.409204
      11B1u    0.409204    12B1u    0.434671     4B1g    0.491110
      15Ag     0.491112     8B3u    0.506619     8B2u    0.506619
      16Ag     0.610524    13B1u    0.683407     7B2g    0.689815
       7B3g    0.689815    17Ag     0.758159    14B1u    1.420879
       9B3u    1.521201     9B2u    1.521201     3Au     1.569762
      15B1u    1.569901     5B1g    1.583055    18Ag     1.583175
      10B2u    1.583810    10B3u    1.583810     8B3g    1.583905
       8B2g    1.583905     9B2g    1.590037     9B3g    1.590037
      19Ag     1.592752    11B3u    1.595940    11B2u    1.595940
      12B2u    1.597169    12B3u    1.597169     4Au     1.604319
      16B1u    1.604482    13B3u    1.616595    13B2u    1.616595
      17B1u    1.656887    20Ag     1.669023    10B2g    1.670979
      10B3g    1.670979    14B3u    1.740801    14B2u    1.740801
      18B1u    1.753453    21Ag     1.883712    19B1u    1.933492
      22Ag     2.017416     6B1g    2.017458    20B1u    2.030294
       5Au     2.030331    11B2g    2.045794    11B3g    2.045794
      23Ag     2.077863     7B1g    2.077910    15B3u    2.100072
      15B2u    2.100072    24Ag     2.150630    21B1u    2.173336
      12B2g    2.199832    12B3g    2.199832    25Ag     2.355056
      22B1u    2.355820    26Ag     2.714549    23B1u    4.807060
      16B3u    4.819291    16B2u    4.819291     6Au     4.862279
      24B1u    4.862811    17B2u    4.873447    17B3u    4.873447
      13B3g    4.873534    13B2g    4.873534     8B1g    4.874738
      27Ag     4.875212    18B2u    4.883626    18B3u    4.883626
       7Au     4.892159    25B1u    4.892774    14B2g    4.916469
      14B3g    4.916469    19B3u    4.976038    19B2u    4.976038
      28Ag     5.042906    26B1u    5.199945    20B3u    5.628778
      20B2u    5.628778    15B2g    5.629252    15B3g    5.629252
       8Au     5.629420    27B1u    5.629751     9B1g    5.629779
      29Ag     5.630110    30Ag     5.631561    21B2u    5.631576
      21B3u    5.631576    16B3g    5.631578    16B2g    5.631578
      28B1u    5.633588    31Ag     5.633631    29B1u    5.634247
      10B1g    5.634441     9Au     5.634441    11B1g    5.639841
      32Ag     5.640343    17B2g    5.642003    17B3g    5.642003
      18B2g    5.642551    18B3g    5.642551    33Ag     5.645226
      12B1g    5.646380    34Ag     5.662510    35Ag    33.439137
      30B1u   33.587650    36Ag    33.992498    37Ag   110.856542
      31B1u  110.903166    38Ag   111.037063

    Final Occupation by Irrep:
             Ag   B1g   B2g   B3g    Au   B1u   B2u   B3u
    DOCC [     8,    2,    3,    3,    1,    5,    3,    3 ]
    SOCC [     0,    0,    0,    0,    0,    1,    0,    0 ]

  @DF-UKS Final Energy:  -441.08871414483974

   => Energetics <=

    Nuclear Repulsion Energy =            184.2146722314999465
    One-Electron Energy =               -1151.9497854425803780
    Two-Electron Energy =                 569.1747471687383495
    DFT Exchange-Correlation Energy =     -42.5278243124975006
    Empirical Dispersion Energy =          -0.0005237900000000
    VV10 Nonlocal Energy =                  0.0000000000000000
    Total Energy =                       -441.0887141448396278

  UHF NO Occupations:
  HONO-2 :    7 Ag 1.9998354
  HONO-1 :    8 Ag 1.9901118
  HONO-0 :    6B1u 1.0000000
  LUNO+0 :    9 Ag 0.0098882
  LUNO+1 :   10 Ag 0.0001646
  LUNO+2 :    3B1g 0.0001644
  LUNO+3 :    7B1u 0.0001641

Computation Completed

Properties will be evaluated at   0.000000,   0.000000,   0.000000 [a0]

Properties computed using the SCF density matrix

  Nuclear Dipole Moment: [e a0]
     X:     0.0000      Y:     0.0000      Z:     0.0000

  Electronic Dipole Moment: [e a0]
     X:     0.0000      Y:     0.0000      Z:     0.0000

  Dipole Moment: [e a0]
     X:     0.0000      Y:     0.0000      Z:     0.0000     Total:     0.0000

  Dipole Moment: [D]
     X:     0.0000      Y:     0.0000      Z:     0.0000     Total:     0.0000

*** tstop() called on compute404.bc4.acrc.priv at Tue Nov  2 11:12:20 2021
Module time:
	user time   =     330.22 seconds =       5.50 minutes
	system time =      13.86 seconds =       0.23 minutes
	total time  =         22 seconds =       0.37 minutes
Total time:
	user time   =     330.22 seconds =       5.50 minutes
	system time =      13.86 seconds =       0.23 minutes
	total time  =         22 seconds =       0.37 minutes

    Psi4 stopped on: Tuesday, 02 November 2021 11:12AM
    Psi4 wall time for execution: 0:00:21.72

*** Psi4 exiting successfully. Buy a developer a beer!
