                               Psi4 1.4.1 release

  ==> Input File <==

--------------------------------------------------------------------------
memory 144 GB

molecule {
0 2
Ag       0.000000    1.533951   -0.000000
Ag       1.328441   -0.766976    0.000000
Ag      -1.328441   -0.766976   -0.000000
 }

set reference uks
set basis Def2-TZVPPD

energy("SCAN-D3BJ")
--------------------------------------------------------------------------

    Molecular point group: c2v

    Geometry (in Angstrom), charge = 0, multiplicity = 2:

       Center              X                  Y                   Z               Mass
    ------------   -----------------  -----------------  -----------------  -----------------
         AG           0.000000000000    -0.000000000000     1.533951333333   106.905091600000
         AG           1.328441000000     0.000000000000    -0.766975666667   106.905091600000
         AG          -1.328441000000    -0.000000000000    -0.766975666667   106.905091600000

  Charge       = 0
  Multiplicity = 2
  Basis Set: DEF2-TZVPPD
    Blend: DEF2-TZVPPD
  Basis Set: (DEF2-TZVPPD AUX)
    Blend: DEF2-UNIVERSAL-JKFIT

    Orbital Energies [Eh]
    ---------------------

    Alpha Occupied:

       1A1    -3.701856     1B1    -3.701529     2A1    -3.684335
       3A1    -2.293827     2B1    -2.290025     4A1    -2.288650
       3B1    -2.288001     1B2    -2.287309     1A2    -2.286951
       5A1    -2.272027     4B1    -2.271073     2B2    -2.267264
       6A1    -0.338644     7A1    -0.322746     5B1    -0.314551
       3B2    -0.314155     8A1    -0.300539     4B2    -0.298381
       2A2    -0.293271     6B1    -0.280688     3A2    -0.276809
       7B1    -0.275775     9A1    -0.268107     4A2    -0.265811
      10A1    -0.264232     5B2    -0.263646     8B1    -0.253374
      11A1    -0.240159    12A1    -0.141366

    Alpha Virtual:

       9B1    -0.133707     6B2    -0.056974    13A1    -0.034607
      10B1    -0.021142    14A1    -0.018148     7B2     0.026529
       5A2     0.027320    11B1     0.079695    15A1     0.089014
      12B1     0.091724    16A1     0.109028    17A1     0.159142
       8B2     0.166469    13B1     0.169678    18A1     0.174727
      14B1     0.186512    19A1     0.189176     6A2     0.220214
       9B2     0.230620    15B1     0.293443    16B1     0.344971
      20A1     0.348071    21A1     0.353317    10B2     0.377892
       7A2     0.384412    11B2     0.395498    17B1     0.486086
      22A1     0.486594     8A2     0.527009    23A1     0.551683
       9A2     0.582920    12B2     0.590259    24A1     0.591454
      18B1     0.593144    19B1     0.671994    25A1     0.680358
      20B1     0.727503    26A1     1.458189    21B1     1.461725
      27A1     1.498417    28A1     1.508661    13B2     1.530477
      14B2     1.540980    10A2     1.541183    29A1     1.559502
      22B1     1.563782    15B2     1.565840    11A2     1.577211
      12A2     1.577501    23B1     1.583897    16B2     1.587770
      17B2     1.595508    24B1     1.605343    30A1     1.605402
      18B2     1.612443    25B1     1.613541    31A1     1.625557
      13A2     1.635031    26B1     1.670413    27B1     1.682844
      32A1     1.690365    33A1     1.713675    14A2     1.715596
      19B2     1.725877    34A1     1.748337    28B1     1.751479
      29B1     1.910943    35A1     1.948738    36A1     2.030980
      20B2     2.035768    15A2     2.045751    30B1     2.070376
      21B2     2.075783    37A1     2.083634    16A2     2.092109
      38A1     2.108447    31B1     2.110484    17A2     2.112068
      22B2     2.127598    32B1     2.208409    39A1     2.218504
      33B1     2.243488    40A1     2.376497    34B1     2.563592
      41A1     2.572646    42A1     4.806110    43A1     4.819642
      35B1     4.823587    23B2     4.828500    18A2     4.837865
      24B2     4.838105    44A1     4.844777    25B2     4.856987
      45A1     4.859440    36B1     4.864007    19A2     4.866347
      26B2     4.881283    37B1     4.882073    20A2     4.919310
      38B1     4.938083    21A2     4.943238    46A1     4.948226
      27B2     4.948426    39B1     5.103072    47A1     5.108675
      40B1     5.124327    48A1     5.616553    28B2     5.616727
      22A2     5.616813    41B1     5.617490    49A1     5.618224
      29B2     5.618283    42B1     5.619002    23A2     5.619248
      50A1     5.619802    24A2     5.620342    30B2     5.620633
      43B1     5.621338    44B1     5.622122    51A1     5.622138
      25A2     5.622473    31B2     5.622519    45B1     5.624756
      52A1     5.626415    53A1     5.637062    32B2     5.638242
      26A2     5.639464    54A1     5.641104    33B2     5.641393
      46B1     5.641961    27A2     5.642175    55A1     5.645442
      47B1     5.646083    56A1    33.476880    48B1    33.807022
      57A1    33.826766    58A1   110.861602    49B1   110.964826
      59A1   110.978129

    Beta Occupied:

       1A1    -3.701484     1B1    -3.701161     2A1    -3.683089
       3A1    -2.293578     2B1    -2.290228     4A1    -2.288661
       3B1    -2.287605     1B2    -2.287404     1A2    -2.287052
       5A1    -2.272487     4B1    -2.270744     2B2    -2.267554
       6A1    -0.338274     7A1    -0.319937     3B2    -0.313497
       5B1    -0.310960     8A1    -0.297761     4B2    -0.296694
       2A2    -0.291409     6B1    -0.279983     3A2    -0.276796
       7B1    -0.275063     9A1    -0.264190     4A2    -0.262126
      10A1    -0.259652     5B2    -0.258822     8B1    -0.248195
      11A1    -0.228717

    Beta Virtual:

       9B1    -0.123516    12A1    -0.100474     6B2    -0.047291
      13A1    -0.021080    10B1     0.000360    14A1     0.000480
       5A2     0.029962     7B2     0.042171    11B1     0.079443
      15A1     0.086210    12B1     0.092241    16A1     0.111168
      17A1     0.155939     8B2     0.163840    13B1     0.164038
      18A1     0.170809    19A1     0.181950    14B1     0.184442
       6A2     0.219053     9B2     0.230697    15B1     0.294245
      16B1     0.346308    20A1     0.351101    21A1     0.357569
      10B2     0.384013     7A2     0.392035    11B2     0.400023
      17B1     0.491559    22A1     0.497886     8A2     0.535703
      23A1     0.550429     9A2     0.585729    18B1     0.595818
      24A1     0.597513    12B2     0.597600    19B1     0.671151
      25A1     0.678451    20B1     0.730442    26A1     1.459627
      21B1     1.464630    27A1     1.501304    28A1     1.511554
      13B2     1.531017    14B2     1.543250    10A2     1.544367
      29A1     1.559955    22B1     1.564076    15B2     1.566529
      11A2     1.576977    12A2     1.578693    23B1     1.584104
      16B2     1.588901    17B2     1.597426    30A1     1.603913
      24B1     1.605580    18B2     1.610806    25B1     1.613288
      31A1     1.626907    13A2     1.636383    26B1     1.668596
      27B1     1.683346    32A1     1.690829    33A1     1.711757
      14A2     1.715229    19B2     1.723059    34A1     1.744819
      28B1     1.747701    29B1     1.906771    35A1     1.948497
      36A1     2.028950    20B2     2.034365    15A2     2.044023
      30B1     2.068697    21B2     2.075858    37A1     2.079330
      16A2     2.089004    38A1     2.105633    31B1     2.107257
      17A2     2.110739    22B2     2.125536    32B1     2.206983
      39A1     2.215571    33B1     2.240110    40A1     2.372738
      34B1     2.562240    41A1     2.571139    42A1     4.807704
      43A1     4.821325    35B1     4.825037    23B2     4.829854
      18A2     4.839598    24B2     4.840361    44A1     4.846630
      25B2     4.858786    45A1     4.861114    36B1     4.866003
      19A2     4.868016    26B2     4.885001    37B1     4.885424
      20A2     4.920705    38B1     4.939212    21A2     4.944893
      46A1     4.949868    27B2     4.950562    39B1     5.103893
      47A1     5.109535    40B1     5.124927    28B2     5.617759
      48A1     5.617858    22A2     5.618178    41B1     5.618842
      49A1     5.619101    29B2     5.619430    23A2     5.620327
      42B1     5.620603    50A1     5.621424    24A2     5.621548
      30B2     5.621909    43B1     5.622894    51A1     5.623333
      44B1     5.623436    25A2     5.624027    31B2     5.624270
      45B1     5.625857    52A1     5.628340    53A1     5.639687
      32B2     5.641504    26A2     5.642476    54A1     5.643984
      33B2     5.644587    27A2     5.645306    46B1     5.645364
      55A1     5.648502    47B1     5.648854    56A1    33.468346
      48B1    33.803085    57A1    33.812245    58A1   110.860169
      49B1   110.964112    59A1   110.975371

    Final Occupation by Irrep:
             A1    A2    B1    B2
    DOCC [    11,    4,    8,    5 ]
    SOCC [     1,    0,    0,    0 ]

  @DF-UKS Final Energy:  -441.09149461655181

   => Energetics <=

    Nuclear Repulsion Energy =            215.7035793725837323
    One-Electron Energy =               -1214.5217651032558024
    Two-Electron Energy =                 600.2574781994121622
    DFT Exchange-Correlation Energy =     -42.5301900552916550
    Empirical Dispersion Energy =          -0.0005970300000000
    VV10 Nonlocal Energy =                  0.0000000000000000
    Total Energy =                       -441.0914946165515858

  UHF NO Occupations:
  HONO-2 :    8 B1 1.9984278
  HONO-1 :   11 A1 1.9958716
  HONO-0 :   12 A1 1.0000000
  LUNO+0 :   13 A1 0.0041284
  LUNO+1 :    9 B1 0.0015722
  LUNO+2 :   10 B1 0.0003917
  LUNO+3 :    6 B2 0.0003744

Computation Completed

Properties will be evaluated at   0.000000,   0.000000,   0.000000 [a0]

Properties computed using the SCF density matrix

  Nuclear Dipole Moment: [e a0]
     X:    -0.0000      Y:    -0.0000      Z:     0.0000

  Electronic Dipole Moment: [e a0]
     X:     0.0000      Y:     0.0000      Z:    -0.4751

  Dipole Moment: [e a0]
     X:    -0.0000      Y:    -0.0000      Z:    -0.4751     Total:     0.4751

  Dipole Moment: [D]
     X:    -0.0000      Y:    -0.0000      Z:    -1.2077     Total:     1.2077

*** tstop() called on compute405.bc4.acrc.priv at Tue Nov  2 11:10:33 2021
Module time:
	user time   =     387.63 seconds =       6.46 minutes
	system time =      14.30 seconds =       0.24 minutes
	total time  =         23 seconds =       0.38 minutes
Total time:
	user time   =     387.63 seconds =       6.46 minutes
	system time =      14.30 seconds =       0.24 minutes
	total time  =         23 seconds =       0.38 minutes

    Psi4 stopped on: Tuesday, 02 November 2021 11:10AM
    Psi4 wall time for execution: 0:00:23.59

*** Psi4 exiting successfully. Buy a developer a beer!
