                               Psi4 1.4.1 release

  ==> Input File <==

--------------------------------------------------------------------------
memory 144 GB

molecule {
0 1
Ag      -1.015022   -0.433109    0.700282
Ag       0.974659   -2.209777    0.043294
Ag       1.013798    0.433158   -0.699441
Ag      -0.973435    2.209727   -0.044135
 }

set basis Def2-TZVPPD

energy("SCAN-D3BJ")
--------------------------------------------------------------------------

    Molecular point group: c1

    Geometry (in Angstrom), charge = 0, multiplicity = 1:

       Center              X                  Y                   Z               Mass
    ------------   -----------------  -----------------  -----------------  -----------------
         AG          -1.015022000000    -0.433108750000     0.700282000000   106.905091600000
         AG           0.974659000000    -2.209776750000     0.043294000000   106.905091600000
         AG           1.013798000000     0.433158250000    -0.699441000000   106.905091600000
         AG          -0.973435000000     2.209727250000    -0.044135000000   106.905091600000

  Charge       = 0
  Multiplicity = 1
  Basis Set: DEF2-TZVPPD
    Blend: DEF2-TZVPPD
  Basis Set: (DEF2-TZVPPD AUX)
    Blend: DEF2-UNIVERSAL-JKFIT

    Orbital Energies [Eh]
    ---------------------

    Doubly Occupied:

       1A     -3.704482     2A     -3.704078     3A     -3.680750
       4A     -3.680707     5A     -2.296818     6A     -2.292147
       7A     -2.291506     8A     -2.290947     9A     -2.290222
      10A     -2.289796    11A     -2.269712    12A     -2.269569
      13A     -2.267399    14A     -2.267326    15A     -2.264527
      16A     -2.264488    17A     -0.337038    18A     -0.335729
      19A     -0.316238    20A     -0.314747    21A     -0.312656
      22A     -0.305131    23A     -0.293737    24A     -0.292917
      25A     -0.278614    26A     -0.278120    27A     -0.274298
      28A     -0.267361    29A     -0.266832    30A     -0.266616
      31A     -0.263084    32A     -0.261743    33A     -0.260039
      34A     -0.258513    35A     -0.256796    36A     -0.247495
      37A     -0.240946    38A     -0.169313

  @DF-RKS Final Energy:  -588.16656438878829

   => Energetics <=

    Nuclear Repulsion Energy =            390.9440573221471027
    One-Electron Energy =               -1826.3466808666612451
    Two-Electron Energy =                 903.9431411739219584
    DFT Exchange-Correlation Energy =     -56.7059483381960945
    Empirical Dispersion Energy =          -0.0011336800000000
    VV10 Nonlocal Energy =                  0.0000000000000000
    Total Energy =                       -588.1665643887882879

  Dipole Moment: [D]
     X:    -0.0051      Y:     0.0009      Z:     0.0027     Total:     0.0059

*** Psi4 exiting successfully. Buy a developer a beer!
