                               Psi4 1.4.1 release

  ==> Input File <==

--------------------------------------------------------------------------
memory 144 GB

molecule {
2 1
Ag      -0.268639    1.507918    0.000000
Ag       1.705052   -0.492854   -0.000000
Ag      -0.647170   -0.911099    1.379441
Ag      -0.647170   -0.911099   -1.379441
N       -0.647170    3.675657    0.000000
H       -0.250844    4.149729    0.817426
H       -0.250844    4.149729   -0.817426
H       -1.645581    3.906275    0.000000
 }

set basis Def2-TZVPPD

energy("SCAN-D3BJ")
--------------------------------------------------------------------------

    Molecular point group: cs

    Geometry (in Angstrom), charge = 2, multiplicity = 1:

       Center              X                  Y                   Z               Mass
    ------------   -----------------  -----------------  -----------------  -----------------
         AG          -0.277549184886     1.558553668839     0.000000000000   106.905091600000
         AG           1.696141815114    -0.442218331161     0.000000000000   106.905091600000
         AG          -0.656080184886    -0.860463331161     1.379441000000   106.905091600000
         AG          -0.656080184886    -0.860463331161    -1.379441000000   106.905091600000
         N           -0.656080184886     3.726292668839     0.000000000000    14.003074004430
         H           -0.259754184886     4.200364668839     0.817426000000     1.007825032230
         H           -0.259754184886     4.200364668839    -0.817426000000     1.007825032230
         H           -1.654491184886     3.956910668839     0.000000000000     1.007825032230

  Charge       = 2
  Multiplicity = 1
  Basis Set: DEF2-TZVPPD
    Blend: DEF2-TZVPPD
  Basis Set: (DEF2-TZVPPD AUX)
    Blend: DEF2-UNIVERSAL-JKFIT

    Orbital Energies [Eh]
    ---------------------

    Doubly Occupied:

       1Ap   -14.475099     2Ap    -4.041038     3Ap    -4.040752
       1App   -4.040748     4Ap    -4.029567     5Ap    -2.632789
       2App   -2.630321     6Ap    -2.630317     3App   -2.628397
       7Ap    -2.628395     8Ap    -2.628184     4App   -2.627508
       9Ap    -2.627481     5App   -2.627477    10Ap    -2.618960
       6App   -2.615398    11Ap    -2.615398    12Ap    -1.151314
       7App   -0.753749    13Ap    -0.753743    14Ap    -0.697327
      15Ap    -0.667451    16Ap    -0.658472     8App   -0.658454
      17Ap    -0.648754     9App   -0.648114    18Ap    -0.648092
      19Ap    -0.639749    10App   -0.634572    20Ap    -0.634559
      11App   -0.618887    12App   -0.618218    21Ap    -0.618211
      22Ap    -0.617100    13App   -0.617079    14App   -0.609351
      23Ap    -0.609339    15App   -0.600856    24Ap    -0.595295
      16App   -0.595274    25Ap    -0.584475    26Ap    -0.566541

  @DF-RKS Final Energy:  -644.16482314920597

   => Energetics <=

    Nuclear Repulsion Energy =            527.7252358253977036
    One-Electron Energy =               -2146.1846743897563101
    Two-Electron Energy =                1038.6336767767315905
    DFT Exchange-Correlation Energy =     -64.3370082715789522
    Empirical Dispersion Energy =          -0.0020530900000000
    VV10 Nonlocal Energy =                  0.0000000000000000
    Total Energy =                       -644.1648231492059722

  Dipole Moment: [D]
     X:    -0.8629      Y:     4.9270      Z:    -0.0000     Total:     5.0020

*** Psi4 exiting successfully. Buy a developer a beer!
