                               Psi4 1.4.1 release

  ==> Input File <==

--------------------------------------------------------------------------
memory 144 GB

molecule {
2 1
Ag      -0.000000   -0.000016    1.715553
Ag       0.000000   -1.617524   -0.571836
Ag       1.400774    0.808769   -0.571859
Ag      -1.400774    0.808770   -0.571858
 }

set basis Def2-TZVPPD

energy("SCAN-D3BJ")
--------------------------------------------------------------------------

    Molecular point group: c1

    Geometry (in Angstrom), charge = 2, multiplicity = 1:

       Center              X                  Y                   Z               Mass
    ------------   -----------------  -----------------  -----------------  -----------------
         AG          -0.000000000000    -0.000015750000     1.715553000000   106.905091600000
         AG          -0.000000000000    -1.617523750000    -0.571836000000   106.905091600000
         AG           1.400774000000     0.808769250000    -0.571859000000   106.905091600000
         AG          -1.400774000000     0.808770250000    -0.571858000000   106.905091600000

  Charge       = 2
  Multiplicity = 1
  Basis Set: DEF2-TZVPPD
    Blend: DEF2-TZVPPD
  Basis Set: (DEF2-TZVPPD AUX)
    Blend: DEF2-UNIVERSAL-JKFIT

    Orbital Energies [Eh]
    ---------------------

    Doubly Occupied:

       1A     -4.071424     2A     -4.071121     3A     -4.071118
       4A     -4.071115     5A     -2.663394     6A     -2.660828
       7A     -2.660824     8A     -2.660824     9A     -2.659064
      10A     -2.659061    11A     -2.658486    12A     -2.658485
      13A     -2.658484    14A     -2.657922    15A     -2.657920
      16A     -2.657914    17A     -0.718686    18A     -0.690943
      19A     -0.690924    20A     -0.690921    21A     -0.682244
      22A     -0.682241    23A     -0.669165    24A     -0.669134
      25A     -0.669129    26A     -0.650141    27A     -0.650128
      28A     -0.650111    29A     -0.648798    30A     -0.648780
      31A     -0.648304    32A     -0.648303    33A     -0.648281
      34A     -0.632702    35A     -0.632693    36A     -0.632679
      37A     -0.614910

  @DF-RKS Final Energy:  -587.51893899254787

   => Energetics <=

    Nuclear Repulsion Energy =            409.1285871246527108
    One-Electron Energy =               -1833.9396034344390500
    Two-Electron Energy =                 893.6403399882808571
    DFT Exchange-Correlation Energy =     -56.3470739010424495
    Empirical Dispersion Energy =          -0.0011887700000000
    VV10 Nonlocal Energy =                  0.0000000000000000
    Total Energy =                       -587.5189389925478736

  Dipole Moment: [D]
     X:    -0.0001      Y:     0.0001      Z:    -0.0001     Total:     0.0002

*** Psi4 exiting successfully. Buy a developer a beer!
