                               Psi4 1.4.1 release

  ==> Input File <==

--------------------------------------------------------------------------
memory 144 GB

molecule {
2 2
Ag       0.000000    1.604405   -0.611776
Ag       1.389456   -0.802203   -0.611776
Ag      -1.389456   -0.802203   -0.611776
Ag       0.000000    0.000000    1.871824
H        0.000000    0.000000   -1.715373
 }

set reference uks
set basis Def2-TZVPPD

energy("SCAN-D3BJ")
--------------------------------------------------------------------------

    Molecular point group: cs

    Geometry (in Angstrom), charge = 2, multiplicity = 2:

       Center              X                  Y                   Z               Mass
    ------------   -----------------  -----------------  -----------------  -----------------
         AG          -1.604405249412     0.616845224138     0.000000000000   106.905091600000
         AG           0.802202750588     0.616845224138     1.389456000000   106.905091600000
         AG           0.802202750588     0.616845224138    -1.389456000000   106.905091600000
         AG          -0.000000249412    -1.866754775862     0.000000000000   106.905091600000
         H           -0.000000249412     1.720442224138     0.000000000000     1.007825032230

  Charge       = 2
  Multiplicity = 2
  Basis Set: DEF2-TZVPPD
    Blend: DEF2-TZVPPD
  Basis Set: (DEF2-TZVPPD AUX)
    Blend: DEF2-UNIVERSAL-JKFIT

    Orbital Energies [Eh]
    ---------------------

    Alpha Occupied:

       1Ap    -4.086458     1App   -4.086205     2Ap    -4.086196
       3Ap    -4.052589     4Ap    -2.679394     2App   -2.676890
       5Ap    -2.676881     6Ap    -2.673482     7Ap    -2.673324
       3App   -2.673320     8Ap    -2.672889     4App   -2.672887
       5App   -2.672246     9Ap    -2.641453    10Ap    -2.638852
       6App   -2.638849    11Ap    -0.787630    12Ap    -0.718884
      13Ap    -0.699991     7App   -0.699974     8App   -0.686690
      14Ap    -0.686682    15Ap    -0.685571    16Ap    -0.672817
       9App   -0.672815    10App   -0.666574    17Ap    -0.666544
      11App   -0.662431    12App   -0.660956    18Ap    -0.660950
      19Ap    -0.659913    13App   -0.646242    14App   -0.639190
      20Ap    -0.639178    21Ap    -0.634200    15App   -0.634193
      22Ap    -0.632526    23Ap    -0.534765

    Alpha Virtual:

      16App   -0.474344    24Ap    -0.474322    25Ap    -0.411419
      26Ap    -0.349513    17App   -0.339301    27Ap    -0.339293
      18App   -0.331210    28Ap    -0.331183    29Ap    -0.214702
      19App   -0.207995    30Ap    -0.207970    31Ap    -0.201977
      20App   -0.195737    21App   -0.188757    32Ap    -0.188732
      33Ap    -0.150785    34Ap    -0.120040    22App   -0.103933
      35Ap    -0.103910    36Ap    -0.101569    23App   -0.096041
      37Ap    -0.096031    24App   -0.079055    38Ap    -0.079018
      39Ap    -0.070925    25App   -0.036482    40Ap    -0.036452
      41Ap    -0.018623    26App   -0.015584    42Ap    -0.015572
      27App   -0.014861    28App    0.006131    43Ap     0.006165
      44Ap     0.008082    29App    0.083587    45Ap     0.083669
      30App    0.132801    46Ap     0.132809    47Ap     0.147211
      31App    0.175490    48Ap     0.195400    32App    0.239549
      49Ap     0.239600    50Ap     0.248980    33App    0.256626
      51Ap     0.256671    34App    0.282607    52Ap     0.282823
      53Ap     0.303934    35App    0.330751    54Ap     0.330877
      36App    0.360046    55Ap     0.360150    37App    0.370406
      56Ap     0.396369    57Ap     0.613143    38App    0.613288
      58Ap     0.723616    39App    1.103733    59Ap     1.103737
      60Ap     1.151746    61Ap     1.157210    62Ap     1.163176
      40App    1.163200    63Ap     1.169100    64Ap     1.169361
      41App    1.169396    42App    1.181012    65Ap     1.181016
      43App    1.187553    44App    1.200912    66Ap     1.200962
      67Ap     1.207611    45App    1.207635    46App    1.210100
      68Ap     1.214976    69Ap     1.217829    70Ap     1.218102
      47App    1.218128    48App    1.224890    71Ap     1.243146
      49App    1.243164    50App    1.252538    72Ap     1.252571
      51App    1.258681    73Ap     1.302526    74Ap     1.330702
      52App    1.330719    75Ap     1.348974    76Ap     1.365592
      53App    1.365593    77Ap     1.377056    78Ap     1.424811
      54App    1.424889    79Ap     1.445759    55App    1.507247
      80Ap     1.530151    56App    1.530188    57App    1.682844
      81Ap     1.682877    82Ap     1.702744    58App    1.705554
      59App    1.714329    83Ap     1.714389    84Ap     1.757529
      60App    1.757547    85Ap     1.760228    86Ap     1.786216
      61App    1.786305    87Ap     1.792768    62App    1.792830
      88Ap     1.797563    63App    1.803064    89Ap     1.805679
      64App    1.805733    90Ap     1.851381    65App    1.892348
      91Ap     1.892358    92Ap     2.159918    93Ap     2.388227
      66App    2.438307    94Ap     2.438327    95Ap     2.754813
      96Ap     2.958355    67App    2.959370    97Ap     3.001819
      98Ap     3.259586    68App    3.260539    99Ap     3.825505
      69App    3.826029   100Ap     3.873556   101Ap     4.457352
      70App    4.457413   102Ap     4.472988    71App    4.479861
     103Ap     4.479868    72App    4.483422   104Ap     4.500704
      73App    4.500751    74App    4.502661   105Ap     4.502958
     106Ap     4.519127    75App    4.519155    76App    4.520991
     107Ap     4.527821   108Ap     4.533560    77App    4.533594
     109Ap     4.545581   110Ap     4.555866    78App    4.555908
     111Ap     4.637717    79App    4.637773   112Ap     4.645332
      80App    4.672605    81App    4.689946   113Ap     4.689994
     114Ap     4.847002    82App    4.847357   115Ap     4.879573
      83App    5.230435   116Ap     5.232250    84App    5.232607
      85App    5.233226   117Ap     5.233736    86App    5.233758
     118Ap     5.233973   119Ap     5.234952    87App    5.235198
      88App    5.235722    89App    5.236192   120Ap     5.236250
      90App    5.237124   121Ap     5.237407    91App    5.237505
     122Ap     5.237853    92App    5.238809   123Ap     5.238864
      93App    5.242703   124Ap     5.242732   125Ap     5.244942
     126Ap     5.246956    94App    5.247057   127Ap     5.255530
     128Ap     5.266270    95App    5.267396   129Ap     5.267651
      96App    5.267695   130Ap     5.268135    97App    5.268398
     131Ap     5.269207   132Ap     5.272617    98App    5.273649
     133Ap     5.382050    99App    5.382140   134Ap     5.417949
     135Ap    33.179086   136Ap    33.437848   100App   33.576672
     137Ap    33.576686   138Ap   110.509793   139Ap   110.600186
     101App  110.630556   140Ap   110.630569

    Beta Occupied:

       1Ap    -4.084309     1App   -4.084051     2Ap    -4.084042
       3Ap    -4.052362     4Ap    -2.676315     2App   -2.674072
       5Ap    -2.674068     6Ap    -2.672364     3App   -2.672360
       4App   -2.671746     7Ap    -2.670382     5App   -2.669925
       8Ap    -2.669920     9Ap    -2.642542    10Ap    -2.640206
       6App   -2.640204    11Ap    -0.773004    12Ap    -0.713088
      13Ap    -0.699650     7App   -0.699637    14Ap    -0.683063
       8App   -0.682419    15Ap    -0.682413     9App   -0.669976
      16Ap    -0.669974    17Ap    -0.662116    10App   -0.662107
      11App   -0.661208    12App   -0.659299    18Ap    -0.659260
      19Ap    -0.652221    13App   -0.645034    14App   -0.636208
      20Ap    -0.636192    21Ap    -0.631587    15App   -0.631577
      22Ap    -0.626040

    Beta Virtual:

      23Ap    -0.501280    16App   -0.468846    24Ap    -0.468823
      25Ap    -0.394460    26Ap    -0.341067    27Ap    -0.332489
      17App   -0.332488    18App   -0.317977    28Ap    -0.317954
      29Ap    -0.202962    19App   -0.199418    30Ap    -0.199385
      20App   -0.194070    31Ap    -0.189252    21App   -0.187012
      32Ap    -0.186992    33Ap    -0.149481    34Ap    -0.117018
      22App   -0.099807    35Ap    -0.099801    36Ap    -0.099129
      23App   -0.092764    37Ap    -0.092754    38Ap    -0.077059
      24App   -0.077021    39Ap    -0.065747    25App   -0.031501
      40Ap    -0.031493    26App   -0.013849    41Ap    -0.011782
      42Ap    -0.010904    27App   -0.010898    28App    0.008845
      43Ap     0.008848    44Ap     0.014481    45Ap     0.087425
      29App    0.087522    30App    0.137277    46Ap     0.137307
      47Ap     0.146435    31App    0.176999    48Ap     0.202420
      49Ap     0.241208    32App    0.245879    50Ap     0.245918
      51Ap     0.256634    33App    0.256660    34App    0.281339
      52Ap     0.281353    53Ap     0.305804    54Ap     0.327815
      35App    0.327868    36App    0.363642    55Ap     0.363706
      37App    0.370814    56Ap     0.395518    57Ap     0.636142
      38App    0.636302    58Ap     0.734578    39App    1.106134
      59Ap     1.106161    60Ap     1.154970    61Ap     1.159300
      62Ap     1.165291    40App    1.165296    63Ap     1.171407
      64Ap     1.172851    41App    1.172886    42App    1.182209
      65Ap     1.182218    43App    1.189107    44App    1.202528
      66Ap     1.202571    67Ap     1.209405    45App    1.209433
      46App    1.213719    68Ap     1.218048    69Ap     1.220541
      47App    1.220558    70Ap     1.221367    48App    1.226966
      71Ap     1.245066    49App    1.245105    72Ap     1.254428
      50App    1.254432    51App    1.259886    73Ap     1.309152
      74Ap     1.337390    52App    1.337421    75Ap     1.350105
      76Ap     1.367628    53App    1.367639    77Ap     1.383741
      78Ap     1.433454    54App    1.433504    79Ap     1.451682
      55App    1.507599    56App    1.527146    80Ap     1.527159
      57App    1.684937    81Ap     1.685033    58App    1.706442
      82Ap     1.709749    59App    1.714971    83Ap     1.715021
      84Ap     1.759999    60App    1.760032    85Ap     1.764443
      86Ap     1.786966    61App    1.787045    87Ap     1.793275
      62App    1.793340    88Ap     1.803527    63App    1.803921
      89Ap     1.806034    64App    1.806138    90Ap     1.856305
      91Ap     1.892985    65App    1.893093    92Ap     2.158380
      93Ap     2.387871    66App    2.442164    94Ap     2.442198
      95Ap     2.834943    96Ap     3.053763    67App    3.053968
      97Ap     3.110551    98Ap     3.347355    68App    3.348518
      99Ap     3.933844    69App    3.934326   100Ap     3.985622
     101Ap     4.460462    70App    4.460519   102Ap     4.475746
      71App    4.483197   103Ap     4.483211    72App    4.486625
     104Ap     4.505116    73App    4.505175    74App    4.506244
     105Ap     4.506386   106Ap     4.522260    75App    4.522280
      76App    4.524418   107Ap     4.530191   108Ap     4.535560
      77App    4.535596   109Ap     4.553337    78App    4.563530
     110Ap     4.563551   111Ap     4.638346    79App    4.638388
     112Ap     4.651146    80App    4.675239    81App    4.694926
     113Ap     4.694955   114Ap     4.867714    82App    4.868275
     115Ap     4.894795    83App    5.233344    84App    5.234016
     116Ap     5.234182    85App    5.235176   117Ap     5.235273
     118Ap     5.236263    86App    5.236537    87App    5.238026
      88App    5.238480   119Ap     5.238517   120Ap     5.238814
     121Ap     5.239140    89App    5.239565    90App    5.239795
     122Ap     5.240187    91App    5.240465   123Ap     5.241726
      92App    5.241760    93App    5.244402   124Ap     5.244497
     125Ap     5.248962   126Ap     5.251845    94App    5.252000
     127Ap     5.261001   128Ap     5.268385    95App    5.269593
     129Ap     5.269780    96App    5.270267   130Ap     5.271490
      97App    5.272213   131Ap     5.272317   132Ap     5.274118
      98App    5.275124   133Ap     5.400441    99App    5.400695
     134Ap     5.433029   135Ap    33.173848   136Ap    33.425422
     100App   33.580808   137Ap    33.580822   138Ap   110.509700
     139Ap   110.597382   101App  110.631843   140Ap   110.631856

    Final Occupation by Irrep:
             Ap   App
    DOCC [    22,   15 ]
    SOCC [     1,    0 ]

  @DF-UKS Final Energy:  -588.06082845201672

   => Energetics <=

    Nuclear Repulsion Energy =            418.3509837772567721
    One-Electron Energy =               -1852.1258639512916488
    Two-Electron Energy =                 902.3842724814123812
    DFT Exchange-Correlation Energy =     -56.6687553293942088
    Empirical Dispersion Energy =          -0.0014654300000000
    VV10 Nonlocal Energy =                  0.0000000000000000
    Total Energy =                       -588.0608284520168354

  UHF NO Occupations:
  HONO-2 :   21 Ap 1.9993714
  HONO-1 :   22 Ap 1.9975384
  HONO-0 :   23 Ap 1.0000000
  LUNO+0 :   24 Ap 0.0024616
  LUNO+1 :   25 Ap 0.0006286
  LUNO+2 :   16App 0.0006284
  LUNO+3 :   26 Ap 0.0002177

Computation Completed

Properties will be evaluated at   0.000000,   0.000000,   0.000000 [a0]

Properties computed using the SCF density matrix

  Nuclear Dipole Moment: [e a0]
     X:    -0.0000      Y:     2.6688      Z:     0.0000

  Electronic Dipole Moment: [e a0]
     X:     0.0000      Y:    -2.4709      Z:     0.0000

  Dipole Moment: [e a0]
     X:     0.0000      Y:     0.1979      Z:     0.0000     Total:     0.1979

  Dipole Moment: [D]
     X:     0.0001      Y:     0.5030      Z:     0.0000     Total:     0.5030

*** tstop() called on compute130.bc4.acrc.priv at Tue Nov  2 11:13:20 2021
Module time:
	user time   =     914.90 seconds =      15.25 minutes
	system time =      41.65 seconds =       0.69 minutes
	total time  =         47 seconds =       0.78 minutes
Total time:
	user time   =     914.90 seconds =      15.25 minutes
	system time =      41.65 seconds =       0.69 minutes
	total time  =         47 seconds =       0.78 minutes

    Psi4 stopped on: Tuesday, 02 November 2021 11:13AM
    Psi4 wall time for execution: 0:00:47.08

*** Psi4 exiting successfully. Buy a developer a beer!
