                               Psi4 1.4.1 release

  ==> Input File <==

--------------------------------------------------------------------------
memory 144 GB

molecule {
2 2
Ag       0.000000    0.000000    1.733523
Ag       0.000000    1.616553   -0.602470
Ag      -1.399976   -0.808277   -0.602470
Ag       1.399976   -0.808277   -0.602470
H        0.000000    0.000000    3.472645
 }

set reference uks
set basis Def2-TZVPPD

energy("SCAN-D3BJ")
--------------------------------------------------------------------------

    Molecular point group: cs

    Geometry (in Angstrom), charge = 2, multiplicity = 2:

       Center              X                  Y                   Z               Mass
    ------------   -----------------  -----------------  -----------------  -----------------
         AG          -0.000000249412    -1.743786155882     0.000000000000   106.905091600000
         AG          -1.616553249412     0.592206844118     0.000000000000   106.905091600000
         AG           0.808276750588     0.592206844118    -1.399976000000   106.905091600000
         AG           0.808276750588     0.592206844118     1.399976000000   106.905091600000
         H           -0.000000249412    -3.482908155882     0.000000000000     1.007825032230

  Charge       = 2
  Multiplicity = 2
  Basis Set: DEF2-TZVPPD
    Blend: DEF2-TZVPPD
  Basis Set: (DEF2-TZVPPD AUX)
    Blend: DEF2-UNIVERSAL-JKFIT

    Orbital Energies [Eh]
    ---------------------

    Alpha Occupied:

       1Ap    -4.089142     2Ap    -4.071118     3Ap    -4.070886
       1App   -4.070883     4Ap    -2.685209     5Ap    -2.671273
       2App   -2.671267     6Ap    -2.662657     3App   -2.660542
       7Ap    -2.660541     8Ap    -2.658429     4App   -2.658423
       9Ap    -2.658413    10Ap    -2.657825     5App   -2.657823
       6App   -2.657496    11Ap    -0.754666    12Ap    -0.700918
      13Ap    -0.695721     7App   -0.695695    14Ap    -0.684478
       8App   -0.684472    15Ap    -0.683744     9App   -0.672787
      16Ap    -0.672773    17Ap    -0.669045    10App   -0.656451
      18Ap    -0.656443    11App   -0.649756    12App   -0.649064
      19Ap    -0.649053    20Ap    -0.647987    13App   -0.647965
      21Ap    -0.638690    14App   -0.638689    15App   -0.632112
      22Ap    -0.621690    23Ap    -0.599743

    Alpha Virtual:

      24Ap    -0.465592    16App   -0.465586    25Ap    -0.430371
      26Ap    -0.337814    27Ap    -0.335884    17App   -0.335881
      28Ap    -0.320632    18App   -0.320630    29Ap    -0.256268
      30Ap    -0.203855    19App   -0.203854    20App   -0.191683
      31Ap    -0.182676    21App   -0.182672    32Ap    -0.169741
      33Ap    -0.134904    34Ap    -0.115828    35Ap    -0.101327
      36Ap    -0.092884    22App   -0.092884    37Ap    -0.090765
      23App   -0.090762    24App   -0.076911    38Ap    -0.076904
      25App   -0.049735    39Ap    -0.049732    40Ap    -0.041135
      26App   -0.011038    41Ap    -0.010005    27App   -0.010003
      42Ap     0.003196    28App    0.003202    43Ap     0.014108
      44Ap     0.041415    29App    0.062381    45Ap     0.062385
      46Ap     0.111804    30App    0.153386    47Ap     0.153418
      48Ap     0.176436    31App    0.178118    32App    0.193460
      49Ap     0.193472    50Ap     0.240854    51Ap     0.261664
      33App    0.261670    52Ap     0.288366    34App    0.288376
      53Ap     0.292616    54Ap     0.333648    35App    0.333672
      36App    0.375033    55Ap     0.376291    37App    0.376298
      56Ap     0.402780    38App    0.640356    57Ap     0.640357
      58Ap     0.728201    59Ap     1.135114    39App    1.135119
      60Ap     1.157125    40App    1.157158    61Ap     1.159270
      62Ap     1.168364    63Ap     1.177703    41App    1.177708
      42App    1.182531    64Ap     1.187499    43App    1.188824
      65Ap     1.188841    44App    1.193397    66Ap     1.193399
      67Ap     1.196120    68Ap     1.201580    45App    1.201586
      46App    1.208510    69Ap     1.213396    47App    1.228940
      70Ap     1.228952    48App    1.232419    49App    1.234643
      71Ap     1.234646    72Ap     1.258872    50App    1.258900
      51App    1.266057    73Ap     1.284212    52App    1.284234
      74Ap     1.301939    75Ap     1.362486    53App    1.362498
      76Ap     1.373875    54App    1.374430    77Ap     1.374439
      78Ap     1.435396    79Ap     1.513057    55App    1.513079
      56App    1.517066    80Ap     1.585348    81Ap     1.650742
      57App    1.691958    82Ap     1.692027    83Ap     1.695537
      58App    1.712169    84Ap     1.712321    59App    1.715566
      60App    1.723015    85Ap     1.723087    86Ap     1.793410
      61App    1.793481    87Ap     1.809235    62App    1.809282
      63App    1.810787    88Ap     1.815766    64App    1.815910
      89Ap     1.824472    90Ap     1.839964    91Ap     1.901562
      65App    1.901665    92Ap     2.211155    93Ap     2.284976
      94Ap     2.382250    66App    2.382313    95Ap     2.495520
      67App    2.875685    96Ap     2.875802    97Ap     3.020612
      68App    3.020681    98Ap     3.434115    99Ap     3.549141
      69App    3.549153   100Ap     4.029838   101Ap     4.454436
      70App    4.454496   102Ap     4.469411   103Ap     4.478347
      71App    4.478407   104Ap     4.482513    72App    4.484064
     105Ap     4.488558    73App    4.488602   106Ap     4.489933
      74App    4.499801   107Ap     4.507700    75App    4.507752
      76App    4.526392   108Ap     4.526527    77App    4.535528
     109Ap     4.535550    78App    4.541580   110Ap     4.541581
     111Ap     4.555274    79App    4.555310   112Ap     4.675385
     113Ap     4.679634    80App    4.679663    81App    4.679827
     114Ap     4.718937    82App    4.718960   115Ap     4.889827
      83App    5.237747   116Ap     5.237987    84App    5.240719
     117Ap     5.240900   118Ap     5.241527    85App    5.241561
     119Ap     5.246724    86App    5.246754    87App    5.247329
     120Ap     5.247343   121Ap     5.247551    88App    5.247864
     122Ap     5.248023    89App    5.248375   123Ap     5.248737
      90App    5.248805   124Ap     5.249223    91App    5.249434
      92App    5.249777   125Ap     5.250337    93App    5.250557
     126Ap     5.250678    94App    5.250969   127Ap     5.250976
     128Ap     5.251186   129Ap     5.251640    95App    5.251667
      96App    5.251861   130Ap     5.252624    97App    5.252760
      98App    5.259578   131Ap     5.259743   132Ap     5.266386
     133Ap     5.298954    99App    5.299380   134Ap     5.625093
     135Ap    33.132623   136Ap    33.500939   100App   33.500939
     137Ap    33.557074   138Ap   110.495669   139Ap   110.615631
     101App  110.615632   140Ap   110.622596

    Beta Occupied:

       1Ap    -4.085020     2Ap    -4.070906     3Ap    -4.070678
       1App   -4.070675     4Ap    -2.674619     2App   -2.670563
       5Ap    -2.670563     6Ap    -2.662066     3App   -2.660145
       7Ap    -2.660143     8Ap    -2.658485     4App   -2.658480
       9Ap    -2.658337    10Ap    -2.657681     5App   -2.657678
       6App   -2.657603    11Ap    -0.726787    12Ap    -0.694816
       7App   -0.694784    13Ap    -0.692768    14Ap    -0.683102
       8App   -0.683092     9App   -0.669648    15Ap    -0.669642
      16Ap    -0.669219    17Ap    -0.668184    18Ap    -0.653811
      10App   -0.653808    11App   -0.649382    12App   -0.648820
      19Ap    -0.648805    20Ap    -0.647708    13App   -0.647684
      21Ap    -0.637099    14App   -0.637094    15App   -0.632296
      22Ap    -0.612675

    Beta Virtual:

      23Ap    -0.528561    24Ap    -0.463897    16App   -0.463891
      25Ap    -0.409280    26Ap    -0.336059    27Ap    -0.331598
      17App   -0.331596    28Ap    -0.316846    18App   -0.316843
      29Ap    -0.225782    30Ap    -0.196256    19App   -0.196255
      20App   -0.191312    31Ap    -0.182573    21App   -0.182569
      32Ap    -0.172631    33Ap    -0.123196    34Ap    -0.121166
      35Ap    -0.101619    36Ap    -0.093527    22App   -0.093525
      37Ap    -0.091377    23App   -0.091374    38Ap    -0.076467
      24App   -0.076464    39Ap    -0.051376    40Ap    -0.029616
      25App   -0.029616    41Ap    -0.013468    26App   -0.013467
      27App   -0.010618    42Ap     0.003391    28App    0.003398
      43Ap     0.019534    44Ap     0.056527    45Ap     0.068918
      29App    0.068921    46Ap     0.123994    47Ap     0.156243
      30App    0.156245    31App    0.178276    48Ap     0.196094
      32App    0.196095    49Ap     0.196203    50Ap     0.223663
      51Ap     0.262518    33App    0.262529    52Ap     0.286505
      34App    0.286514    53Ap     0.297372    54Ap     0.331098
      35App    0.331119    36App    0.375204    55Ap     0.377951
      37App    0.377964    56Ap     0.420135    57Ap     0.707228
      38App    0.707230    58Ap     0.807883    59Ap     1.137014
      39App    1.137019    60Ap     1.158206    40App    1.158244
      61Ap     1.160306    62Ap     1.168387    63Ap     1.179457
      41App    1.179462    42App    1.187132    64Ap     1.190322
      43App    1.192223    65Ap     1.192259    66Ap     1.193323
      44App    1.193329    67Ap     1.201238    68Ap     1.202232
      45App    1.202239    46App    1.210772    69Ap     1.214394
      47App    1.228522    70Ap     1.228526    48App    1.232835
      49App    1.239758    71Ap     1.239760    72Ap     1.262189
      50App    1.262227    51App    1.265905    73Ap     1.287476
      52App    1.287494    74Ap     1.305486    75Ap     1.362508
      53App    1.362517    54App    1.374866    76Ap     1.374872
      77Ap     1.375786    78Ap     1.480105    79Ap     1.512987
      55App    1.513010    56App    1.516749    80Ap     1.591371
      81Ap     1.655983    57App    1.692588    82Ap     1.692626
      83Ap     1.697494    58App    1.712138    84Ap     1.712233
      59App    1.715828    60App    1.722919    85Ap     1.722981
      86Ap     1.792239    61App    1.792314    87Ap     1.809084
      62App    1.809134    63App    1.810487    88Ap     1.815011
      64App    1.815163    89Ap     1.828763    90Ap     1.890678
      91Ap     1.898238    65App    1.898360    92Ap     2.229654
      93Ap     2.383708    66App    2.383767    94Ap     2.400123
      95Ap     2.646337    67App    3.214670    96Ap     3.215194
      97Ap     3.315894    68App    3.315976    98Ap     3.688194
      99Ap     3.940870    69App    3.940892   100Ap     4.332282
     101Ap     4.456848    70App    4.456903   102Ap     4.469740
     103Ap     4.478980    71App    4.479042   104Ap     4.481909
      72App    4.483196   105Ap     4.489025    73App    4.489070
     106Ap     4.490255    74App    4.499585   107Ap     4.509828
      75App    4.509883    76App    4.526384   108Ap     4.530406
      77App    4.538577   109Ap     4.538613    78App    4.542796
     110Ap     4.542816   111Ap     4.561230    79App    4.561274
     112Ap     4.677173    80App    4.679822   113Ap     4.680877
      81App    4.680905    82App    4.737014   114Ap     4.737014
     115Ap     4.927759    83App    5.240031   116Ap     5.240277
      84App    5.241218   117Ap     5.241517   118Ap     5.244191
      85App    5.244318   119Ap     5.246891    86App    5.246898
      87App    5.247371   120Ap     5.247476   121Ap     5.247649
      88App    5.248042   122Ap     5.248217    89App    5.248803
     123Ap     5.248923    90App    5.249063   124Ap     5.249429
      91App    5.249515    92App    5.249725   125Ap     5.250505
      93App    5.250689   126Ap     5.250758    94App    5.251011
     127Ap     5.251073   128Ap     5.251251    95App    5.251775
     129Ap     5.251879    96App    5.251958    97App    5.252766
     130Ap     5.252893    98App    5.260350   131Ap     5.260525
     132Ap     5.266570   133Ap     5.314717    99App    5.315159
     134Ap     5.698040   135Ap    33.132140   100App   33.500220
     136Ap    33.500221   137Ap    33.557459   138Ap   110.495762
     139Ap   110.615517   101App  110.615518   140Ap   110.623339

    Final Occupation by Irrep:
             Ap   App
    DOCC [    22,   15 ]
    SOCC [     1,    0 ]

  @DF-UKS Final Energy:  -588.04866722746306

   => Energetics <=

    Nuclear Repulsion Energy =            419.0822019403161676
    One-Electron Energy =               -1853.8242840428674754
    Two-Electron Energy =                 903.3275645005745673
    DFT Exchange-Correlation Energy =     -56.6327631954864827
    Empirical Dispersion Energy =          -0.0013864300000000
    VV10 Nonlocal Energy =                  0.0000000000000000
    Total Energy =                       -588.0486672274631701

  UHF NO Occupations:
  HONO-2 :   21 Ap 1.9997152
  HONO-1 :   22 Ap 1.9966515
  HONO-0 :   23 Ap 1.0000000
  LUNO+0 :   24 Ap 0.0033485
  LUNO+1 :   25 Ap 0.0002848
  LUNO+2 :   16App 0.0002846
  LUNO+3 :   26 Ap 0.0001230

Computation Completed

Properties will be evaluated at   0.000000,   0.000000,   0.000000 [a0]

Properties computed using the SCF density matrix

  Nuclear Dipole Moment: [e a0]
     X:    -0.0000      Y:    -5.4028      Z:     0.0000

  Electronic Dipole Moment: [e a0]
     X:    -0.0000      Y:     5.2946      Z:     0.0000

  Dipole Moment: [e a0]
     X:    -0.0000      Y:    -0.1082      Z:     0.0000     Total:     0.1082

  Dipole Moment: [D]
     X:    -0.0000      Y:    -0.2750      Z:     0.0000     Total:     0.2750

*** tstop() called on compute495.bc4.acrc.priv at Tue Nov  2 11:13:12 2021
Module time:
	user time   =     963.44 seconds =      16.06 minutes
	system time =      41.33 seconds =       0.69 minutes
	total time  =         50 seconds =       0.83 minutes
Total time:
	user time   =     963.44 seconds =      16.06 minutes
	system time =      41.33 seconds =       0.69 minutes
	total time  =         50 seconds =       0.83 minutes

    Psi4 stopped on: Tuesday, 02 November 2021 11:13AM
    Psi4 wall time for execution: 0:00:50.20

*** Psi4 exiting successfully. Buy a developer a beer!
