                               Psi4 1.4.1 release

  ==> Input File <==

--------------------------------------------------------------------------
memory 144 GB

molecule {
2 1
Ag       0.000000    1.593354   -0.403942
Ag       1.379885   -0.796677   -0.403942
Ag      -1.379885   -0.796677   -0.403942
Ag       0.000000    0.000000    1.894943
N        0.000000    0.000000   -3.082630
H        0.808649    0.466874   -3.509356
H       -0.000000   -0.933748   -3.509356
H       -0.808649    0.466874   -3.509356
 }

set basis Def2-TZVPPD

energy("SCAN-D3BJ")
--------------------------------------------------------------------------

    Molecular point group: cs

    Geometry (in Angstrom), charge = 2, multiplicity = 1:

       Center              X                  Y                   Z               Mass
    ------------   -----------------  -----------------  -----------------  -----------------
         AG          -1.593354000000     0.447239138241     0.000000000000   106.905091600000
         AG           0.796677000000     0.447239138241     1.379885000000   106.905091600000
         AG           0.796677000000     0.447239138241    -1.379885000000   106.905091600000
         AG           0.000000000000    -1.851645861759     0.000000000000   106.905091600000
         N            0.000000000000     3.125927138241     0.000000000000    14.003074004430
         H           -0.466874000000     3.552653138241     0.808649000000     1.007825032230
         H            0.933748000000     3.552653138241     0.000000000000     1.007825032230
         H           -0.466874000000     3.552653138241    -0.808649000000     1.007825032230

  Charge       = 2
  Multiplicity = 1
  Basis Set: DEF2-TZVPPD
    Blend: DEF2-TZVPPD
  Basis Set: (DEF2-TZVPPD AUX)
    Blend: DEF2-UNIVERSAL-JKFIT

    Orbital Energies [Eh]
    ---------------------

    Doubly Occupied:

       1Ap   -14.451689     2Ap    -4.045481     3Ap    -4.045199
       1App   -4.045188     4Ap    -4.039991     5Ap    -2.637436
       6Ap    -2.635091     2App   -2.635090     3App   -2.633403
       7Ap    -2.633401     4App   -2.632641     8Ap    -2.632523
       9Ap    -2.631594     5App   -2.631580    10Ap    -2.629331
       6App   -2.626892    11Ap    -2.626892    12Ap    -1.132414
       7App   -0.733921    13Ap    -0.733907    14Ap    -0.694163
      15Ap    -0.668326    16Ap    -0.665433     8App   -0.665410
      17Ap    -0.656094     9App   -0.656091    18Ap    -0.646616
      10App   -0.641461    19Ap    -0.641449    11App   -0.624084
      20Ap    -0.623532    12App   -0.623517    21Ap    -0.621992
      22Ap    -0.621585    13App   -0.621573    23Ap    -0.619896
      14App   -0.619895    15App   -0.606083    24Ap    -0.605700
      25Ap    -0.604280    16App   -0.604262    26Ap    -0.552993

  @DF-RKS Final Energy:  -644.12071707721634

   => Energetics <=

    Nuclear Repulsion Energy =            537.0150910960845749
    One-Electron Energy =               -2164.4331414932803455
    Two-Electron Energy =                1047.6439621592378444
    DFT Exchange-Correlation Energy =     -64.3443121392584487
    Empirical Dispersion Energy =          -0.0023167000000000
    VV10 Nonlocal Energy =                  0.0000000000000000
    Total Energy =                       -644.1207170772163408

  Dipole Moment: [D]
     X:    -0.0001      Y:     4.2946      Z:    -0.0000     Total:     4.2946

*** Psi4 exiting successfully. Buy a developer a beer!
