                               Psi4 1.4.1 release

  ==> Input File <==

--------------------------------------------------------------------------
memory 144 GB

molecule {
2 2
Ag      -0.000000    1.374598    1.108828
Ag      -0.000000   -1.374598    1.108828
Ag      -1.374988    0.000000   -1.132689
Ag       1.374988   -0.000000   -1.132689
H        0.000000    0.000000    2.242952
 }

set reference uks
set basis Def2-TZVPPD

energy("SCAN-D3BJ")
--------------------------------------------------------------------------

    Molecular point group: c2v

    Geometry (in Angstrom), charge = 2, multiplicity = 2:

       Center              X                  Y                   Z               Mass
    ------------   -----------------  -----------------  -----------------  -----------------
         AG          -0.000000000000     1.374598000000     1.115456639148   106.905091600000
         AG           0.000000000000    -1.374598000000     1.115456639148   106.905091600000
         AG          -1.374988000000    -0.000000000000    -1.126060360852   106.905091600000
         AG           1.374988000000     0.000000000000    -1.126060360852   106.905091600000
         H           -0.000000000000     0.000000000000     2.249580639148     1.007825032230

  Charge       = 2
  Multiplicity = 2
  Basis Set: DEF2-TZVPPD
    Blend: DEF2-TZVPPD
  Basis Set: (DEF2-TZVPPD AUX)
    Blend: DEF2-UNIVERSAL-JKFIT

    Orbital Energies [Eh]
    ---------------------

    Alpha Occupied:

       1A1    -4.089469     1B2    -4.089265     2A1    -4.066411
       1B1    -4.066201     3A1    -2.683655     2B2    -2.681567
       4A1    -2.676875     3B2    -2.675942     2B1    -2.672602
       1A2    -2.672362     5A1    -2.657534     3B1    -2.655010
       6A1    -2.653598     4B2    -2.653190     4B1    -2.653131
       2A2    -2.652945     7A1    -0.773340     8A1    -0.716387
       9A1    -0.695442     5B1    -0.694081     5B2    -0.689134
      10A1    -0.682137     6B1    -0.680598     3A2    -0.680155
       6B2    -0.675674     7B2    -0.663183     4A2    -0.662001
      11A1    -0.661002     8B2    -0.659789    12A1    -0.656956
       7B1    -0.650279     9B2    -0.646298     5A2    -0.644751
       8B1    -0.642933     6A2    -0.640198    13A1    -0.635244
       9B1    -0.633667    14A1    -0.552607

    Alpha Virtual:

      10B2    -0.471833    10B1    -0.464235    15A1    -0.412906
      11B2    -0.349963    16A1    -0.347917    11B1    -0.342267
      17A1    -0.332586     7A2    -0.314634    12B2    -0.211630
      12B1    -0.207282     8A2    -0.204306    18A1    -0.201328
      19A1    -0.190289    13B2    -0.187124    13B1    -0.181630
      20A1    -0.155652    21A1    -0.115965    14B1    -0.109948
      14B2    -0.104788    22A1    -0.102646    15B1    -0.094969
      23A1    -0.091857     9A2    -0.089970    15B2    -0.089480
      24A1    -0.058384    16B1    -0.050003    16B2    -0.039050
      25A1    -0.021610    10A2    -0.020309    17B1    -0.012896
      17B2    -0.008811    18B1     0.008881    18B2     0.022617
      26A1     0.037618    27A1     0.074116    19B1     0.084471
      19B2     0.103694    11A2     0.122901    28A1     0.166923
      12A2     0.185068    29A1     0.197882    30A1     0.221265
      20B2     0.221585    20B1     0.228759    13A2     0.264985
      31A1     0.265798    21B1     0.274770    32A1     0.279368
      21B2     0.287648    22B1     0.335255    22B2     0.348298
      14A2     0.353018    23B2     0.365132    23B1     0.367814
      33A1     0.393026    24B1     0.523435    24B2     0.675718
      34A1     0.679643    35A1     1.107781    36A1     1.133152
      15A2     1.155078    25B2     1.155731    25B1     1.159187
      16A2     1.167118    26B1     1.169441    37A1     1.173374
      26B2     1.176203    38A1     1.186926    27B2     1.188030
      17A2     1.189524    39A1     1.191099    40A1     1.194531
      18A2     1.202149    27B1     1.204803    28B2     1.208107
      41A1     1.208209    29B2     1.209736    28B1     1.210258
      29B1     1.221578    19A2     1.222687    20A2     1.239012
      30B2     1.250792    30B1     1.263533    31B2     1.273486
      31B1     1.279208    32B1     1.286569    42A1     1.309404
      21A2     1.349896    43A1     1.351715    32B2     1.362344
      44A1     1.363750    33B1     1.364536    45A1     1.389602
      22A2     1.460219    33B2     1.486933    46A1     1.495911
      34B1     1.518030    34B2     1.601846    47A1     1.632671
      23A2     1.695018    35B2     1.702215    48A1     1.703510
      35B1     1.706743    24A2     1.721838    49A1     1.747795
      36B2     1.756216    50A1     1.763293    36B1     1.770030
      25A2     1.777838    37B2     1.779581    37B1     1.797139
      51A1     1.802063    38B2     1.820740    38B1     1.833206
      26A2     1.838082    39B1     1.844625    39B2     1.903096
      52A1     1.920473    53A1     2.151805    40B2     2.267892
      40B1     2.277722    54A1     2.362098    55A1     2.533078
      41B1     3.013343    27A2     3.014530    56A1     3.067524
      57A1     3.362582    41B2     3.437973    42B1     3.565258
      58A1     3.930181    42B2     4.054499    28A2     4.463059
      59A1     4.464104    43B1     4.471393    43B2     4.473844
      60A1     4.483369    44B2     4.484272    61A1     4.485955
      44B1     4.495929    29A2     4.498066    45B1     4.506363
      62A1     4.507653    45B2     4.508278    30A2     4.515410
      46B2     4.521047    63A1     4.523656    46B1     4.539361
      31A2     4.553420    64A1     4.557850    32A2     4.586831
      47B1     4.591434    33A2     4.608809    47B2     4.641406
      48B1     4.652480    48B2     4.694107    65A1     4.696206
      49B1     4.706697    49B2     4.889044    66A1     4.894825
      34A2     5.231245    50B2     5.234050    67A1     5.234408
      50B1     5.235344    68A1     5.236005    35A2     5.236368
      51B2     5.236700    51B1     5.237008    36A2     5.237578
      52B2     5.237640    69A1     5.238834    52B1     5.241221
      53B2     5.245637    37A2     5.251379    53B1     5.251788
      70A1     5.251840    71A1     5.252146    54B2     5.252429
      54B1     5.252728    38A2     5.253110    55B1     5.253603
      55B2     5.253748    72A1     5.254237    39A2     5.254384
      56B1     5.254405    40A2     5.254520    73A1     5.254915
      56B2     5.255013    74A1     5.260090    57B1     5.260835
      41A2     5.262263    57B2     5.263379    58B1     5.286264
      75A1     5.314765    76A1     5.509772    58B2     5.614964
      77A1    33.122692    59B1    33.429577    78A1    33.446464
      59B2    33.469468    79A1   110.489932    80A1   110.594151
      60B2   110.594522    60B1   110.596055

    Beta Occupied:

       1A1    -4.085433     1B2    -4.085224     2A1    -4.065757
       1B1    -4.065565     3A1    -2.676299     2B2    -2.673859
       4A1    -2.672953     3B2    -2.672275     2B1    -2.671334
       1A2    -2.671088     5A1    -2.656412     3B1    -2.654844
       6A1    -2.654092     4B2    -2.653829     2A2    -2.653615
       4B1    -2.652920     7A1    -0.752507     8A1    -0.712643
       5B1    -0.692566     9A1    -0.690894     5B2    -0.684053
       6B1    -0.678403    10A1    -0.677542     3A2    -0.677469
       6B2    -0.667287     4A2    -0.660903     7B2    -0.660895
      11A1    -0.657634     8B2    -0.656381    12A1    -0.653645
       7B1    -0.648049     5A2    -0.643676     8B1    -0.642404
       9B2    -0.642220     6A2    -0.638968     9B1    -0.631534
      13A1    -0.624979

    Beta Virtual:

      14A1    -0.522940    10B2    -0.465799    10B1    -0.457413
      15A1    -0.395252    16A1    -0.341932    11B1    -0.337130
      11B2    -0.336162    17A1    -0.322019     7A2    -0.309568
      12B2    -0.204341     8A2    -0.200250    12B1    -0.199895
      18A1    -0.197167    13B2    -0.185797    13B1    -0.178521
      19A1    -0.176004    20A1    -0.154736    21A1    -0.113742
      14B1    -0.104852    14B2    -0.102411    22A1    -0.098629
      15B1    -0.093897    23A1    -0.088511     9A2    -0.087444
      15B2    -0.086100    24A1    -0.057408    16B1    -0.044589
      16B2    -0.032591    25A1    -0.018789    10A2    -0.017734
      17B1    -0.011164    17B2    -0.007578    18B1     0.012662
      18B2     0.025955    26A1     0.047694    27A1     0.081016
      19B1     0.086748    19B2     0.103603    11A2     0.126234
      28A1     0.169073    12A2     0.186584    29A1     0.194470
      20B2     0.225295    20B1     0.229165    30A1     0.229730
      13A2     0.265860    31A1     0.268722    21B1     0.269835
      21B2     0.281912    32A1     0.282663    22B1     0.337584
      22B2     0.345163    14A2     0.355061    23B2     0.364913
      23B1     0.370701    33A1     0.394075    24B1     0.550240
      34A1     0.695346    24B2     0.699453    35A1     1.111921
      36A1     1.136408    25B2     1.159311    15A2     1.159899
      25B1     1.160853    16A2     1.169654    26B1     1.170857
      37A1     1.176633    26B2     1.177999    38A1     1.189845
      17A2     1.190167    27B2     1.191259    39A1     1.194704
      40A1     1.197566    18A2     1.205133    27B1     1.207885
      28B2     1.210584    28B1     1.212417    29B2     1.212429
      41A1     1.212469    29B1     1.221697    19A2     1.223996
      20A2     1.239715    30B2     1.253719    30B1     1.262639
      31B2     1.274756    31B1     1.287019    32B1     1.292048
      42A1     1.309857    21A2     1.350624    43A1     1.353273
      44A1     1.365094    33B1     1.365596    32B2     1.366934
      45A1     1.405826    22A2     1.459589    33B2     1.501316
      46A1     1.506275    34B1     1.515917    34B2     1.602389
      47A1     1.633426    23A2     1.697347    35B2     1.701432
      48A1     1.704520    35B1     1.708163    24A2     1.722016
      49A1     1.753094    36B2     1.758997    50A1     1.766445
      36B1     1.771004    25A2     1.779134    37B2     1.787407
      37B1     1.798002    51A1     1.812465    38B2     1.823815
      38B1     1.832953    26A2     1.837868    39B1     1.845157
      39B2     1.907656    52A1     1.926542    53A1     2.154794
      40B2     2.271410    40B1     2.273459    54A1     2.364991
      55A1     2.624553    27A2     3.113370    41B1     3.123661
      56A1     3.169265    57A1     3.463971    41B2     3.522834
      42B1     3.708336    58A1     4.045070    42B2     4.155456
      28A2     4.465340    59A1     4.467421    43B1     4.475024
      43B2     4.476305    60A1     4.486337    44B2     4.487697
      61A1     4.488168    44B1     4.498099    29A2     4.500076
      45B1     4.507275    45B2     4.509864    62A1     4.510598
      30A2     4.519465    63A1     4.524583    46B2     4.528243
      46B1     4.541222    31A2     4.555260    64A1     4.562951
      32A2     4.597525    47B1     4.597805    33A2     4.610792
      47B2     4.642727    48B1     4.663435    48B2     4.700127
      49B1     4.706148    65A1     4.710726    49B2     4.908360
      66A1     4.912821    34A2     5.235756    67A1     5.236085
      50B1     5.236188    50B2     5.236424    35A2     5.236911
      68A1     5.238682    51B1     5.239432    51B2     5.239615
      36A2     5.241238    52B2     5.241591    69A1     5.243135
      52B1     5.245696    37A2     5.252306    53B1     5.253027
      70A1     5.253078    53B2     5.253409    71A1     5.254042
      54B1     5.254172    38A2     5.254487    54B2     5.254875
      55B1     5.255084    55B2     5.255652    72A1     5.256151
      39A2     5.256257    73A1     5.256389    56B1     5.256631
      40A2     5.256654    56B2     5.257145    74A1     5.261394
      57B1     5.262660    57B2     5.264473    41A2     5.271757
      58B1     5.297652    75A1     5.328985    76A1     5.533748
      58B2     5.651949    77A1    33.121109    59B1    33.419418
      78A1    33.444551    59B2    33.475927    79A1   110.490498
      80A1   110.594052    60B1   110.594225    60B2   110.596797

    Final Occupation by Irrep:
             A1    A2    B1    B2
    DOCC [    13,    6,    9,    9 ]
    SOCC [     1,    0,    0,    0 ]

  @DF-UKS Final Energy:  -588.06518357700338

   => Energetics <=

    Nuclear Repulsion Energy =            413.2776657412570103
    One-Electron Energy =               -1842.0727757872223265
    Two-Electron Energy =                 897.3797239468678981
    DFT Exchange-Correlation Energy =     -56.6483500979061887
    Empirical Dispersion Energy =          -0.0014473800000000
    VV10 Nonlocal Energy =                  0.0000000000000000
    Total Energy =                       -588.0651835770036087

  UHF NO Occupations:
  HONO-2 :    9 B2 1.9995859
  HONO-1 :   13 A1 1.9973254
  HONO-0 :   14 A1 1.0000000
  LUNO+0 :   15 A1 0.0026746
  LUNO+1 :   10 B2 0.0004141
  LUNO+2 :   10 B1 0.0003753
  LUNO+3 :   16 A1 0.0003231

Computation Completed

Properties will be evaluated at   0.000000,   0.000000,   0.000000 [a0]

Properties computed using the SCF density matrix

  Nuclear Dipole Moment: [e a0]
     X:    -0.0000      Y:    -0.0000      Z:     3.4896

  Electronic Dipole Moment: [e a0]
     X:     0.0000      Y:     0.0000      Z:    -3.5701

  Dipole Moment: [e a0]
     X:    -0.0000      Y:    -0.0000      Z:    -0.0804     Total:     0.0804

  Dipole Moment: [D]
     X:    -0.0000      Y:    -0.0000      Z:    -0.2045     Total:     0.2045

*** tstop() called on compute404.bc4.acrc.priv at Tue Nov  2 11:13:07 2021
Module time:
	user time   =     847.15 seconds =      14.12 minutes
	system time =      38.09 seconds =       0.63 minutes
	total time  =         44 seconds =       0.73 minutes
Total time:
	user time   =     847.15 seconds =      14.12 minutes
	system time =      38.09 seconds =       0.63 minutes
	total time  =         44 seconds =       0.73 minutes

    Psi4 stopped on: Tuesday, 02 November 2021 11:13AM
    Psi4 wall time for execution: 0:00:44.54

*** Psi4 exiting successfully. Buy a developer a beer!
