                               Psi4 1.4.1 release

  ==> Input File <==

--------------------------------------------------------------------------
memory 144 GB

molecule {
0 2
Au       0.000000    0.000000    0.000000
 }

set reference uks
set basis Def2-TZVPPD

energy("SCAN-D3BJ")
--------------------------------------------------------------------------

    Molecular point group: d2h
    Geometry (in Angstrom), charge = 0, multiplicity = 2:

       Center              X                  Y                   Z               Mass
    ------------   -----------------  -----------------  -----------------  -----------------
         AU           0.000000000000     0.000000000000     0.000000000000   196.966568790000

  Charge       = 0
  Multiplicity = 2
  Basis Set: DEF2-TZVPPD
    Blend: DEF2-TZVPPD
  Basis Set: (DEF2-TZVPPD AUX)
    Blend: DEF2-UNIVERSAL-JKFIT

    Orbital Energies [Eh]
    ---------------------

    Alpha Occupied:

       1Ag    -4.089827     1B1u   -2.269890     1B3u   -2.269890
       1B2u   -2.269890     1B1g   -0.263903     2Ag    -0.263902
       3Ag    -0.263902     1B2g   -0.263902     1B3g   -0.263902
       4Ag    -0.235734

    Alpha Virtual:

       2B3u   -0.026508     2B2u   -0.026508     2B1u   -0.026507
       5Ag     0.155217     3B1u    0.196380     3B3u    0.196380
       3B2u    0.196380     6Ag     0.304395     2B1g    0.304395
       2B2g    0.304395     2B3g    0.304395     7Ag     0.304396
       4B3u    1.043949     4B2u    1.043949     4B1u    1.043949
       5B2u    1.099987     5B3u    1.099987     1Au     1.099988
       5B1u    1.099988     6B3u    1.099988     6B2u    1.099988
       6B1u    1.099988     8Ag     1.464092     3B1g    1.464092
       3B2g    1.464093     3B3g    1.464093     9Ag     1.464093
      10Ag     2.069773     7B1u    3.579412     7B3u    3.579412
       7B2u    3.579412     2Au     3.579412     8B3u    3.579412
       8B2u    3.579412     8B1u    3.579412    11Ag     4.150233
       4B1g    4.150233     4B2g    4.150233     4B3g    4.150233
      12Ag     4.150233     5B1g    4.150234     5B2g    4.150234
       5B3g    4.150234    13Ag     4.150234     9B3u   27.457488
       9B2u   27.457488     9B1u   27.457489    14Ag    44.075378
      15Ag   205.179890

    Beta Occupied:

       1Ag    -4.088203     1B1u   -2.272368     1B3u   -2.272368
       1B2u   -2.272368     2Ag    -0.255647     1B2g   -0.255647
       1B3g   -0.255647     1B1g   -0.255647     3Ag    -0.255647

    Beta Virtual:

       4Ag    -0.183070     2B1u    0.004779     2B3u    0.004779
       2B2u    0.004779     5Ag     0.145643     3B1u    0.206680
       3B3u    0.206681     3B2u    0.206681     2B1g    0.310083
       6Ag     0.310083     2B2g    0.310083     2B3g    0.310083
       7Ag     0.310083     4B3u    1.041785     4B2u    1.041785
       4B1u    1.041786     5B1u    1.125303     5B3u    1.125303
       5B2u    1.125303     6B1u    1.125303     1Au     1.125303
       6B2u    1.125303     6B3u    1.125303     8Ag     1.473288
       3B2g    1.473288     3B3g    1.473288     9Ag     1.473289
       3B1g    1.473289    10Ag     2.071882     7B1u    3.595764
       7B3u    3.595764     7B2u    3.595764     2Au     3.595764
       8B1u    3.595764     8B3u    3.595765     8B2u    3.595765
      11Ag     4.173517     4B2g    4.173517     4B1g    4.173517
       4B3g    4.173517     5B2g    4.173517    12Ag     4.173517
       5B1g    4.173517     5B3g    4.173517    13Ag     4.173517
       9B1u   27.445059     9B3u   27.445059     9B2u   27.445059
      14Ag    44.050985    15Ag   205.178711

    Final Occupation by Irrep:
             Ag   B1g   B2g   B3g    Au   B1u   B2u   B3u
    DOCC [     3,    1,    1,    1,    0,    1,    1,    1 ]
    SOCC [     1,    0,    0,    0,    0,    0,    0,    0 ]

  @DF-UKS Final Energy:  -135.73980320777557

   => Energetics <=

    Nuclear Repulsion Energy =              0.0000000000000000
    One-Electron Energy =                -238.7720804226756002
    Two-Electron Energy =                 115.9034872260109523
    DFT Exchange-Correlation Energy =     -12.8712100111109180
    Empirical Dispersion Energy =           0.0000000000000000
    VV10 Nonlocal Energy =                  0.0000000000000000
    Total Energy =                       -135.7398032077755659

  UHF NO Occupations:
  HONO-2 :    3 Ag 1.9995888
  HONO-1 :    1B1g 1.9995888
  HONO-0 :    4 Ag 1.0000000
  LUNO+0 :    2B1g 0.0004112
  LUNO+1 :    5 Ag 0.0004112
  LUNO+2 :    2B3g 0.0004111
  LUNO+3 :    2B2g 0.0004111

Computation Completed

Properties will be evaluated at   0.000000,   0.000000,   0.000000 [a0]

Properties computed using the SCF density matrix

  Nuclear Dipole Moment: [e a0]
     X:     0.0000      Y:     0.0000      Z:     0.0000

  Electronic Dipole Moment: [e a0]
     X:     0.0000      Y:     0.0000      Z:     0.0000

  Dipole Moment: [e a0]
     X:     0.0000      Y:     0.0000      Z:     0.0000     Total:     0.0000

  Dipole Moment: [D]
     X:     0.0000      Y:     0.0000      Z:     0.0000     Total:     0.0000

*** tstop() called on compute495.bc4.acrc.priv at Tue Nov  2 11:11:50 2021
Module time:
	user time   =      74.55 seconds =       1.24 minutes
	system time =       2.79 seconds =       0.05 minutes
	total time  =          6 seconds =       0.10 minutes
Total time:
	user time   =      74.55 seconds =       1.24 minutes
	system time =       2.79 seconds =       0.05 minutes
	total time  =          6 seconds =       0.10 minutes

    Psi4 stopped on: Tuesday, 02 November 2021 11:11AM
    Psi4 wall time for execution: 0:00:05.94

*** Psi4 exiting successfully. Buy a developer a beer!
