                               Psi4 1.4.1 release

  ==> Input File <==

--------------------------------------------------------------------------
memory 120 GB

molecule {
2 1
Au       0.000000    1.548281   -0.453246
Au       1.340851   -0.774141   -0.453246
Au      -1.340851   -0.774141   -0.453246
Au       0.000000    0.000000    1.783664
N        0.000000    0.000000   -3.226055
H       -0.813891    0.469900   -3.635956
H        0.813891    0.469900   -3.635956
H       -0.000000   -0.939800   -3.635956
 }

set basis Def2-TZVPPD

energy("SCAN-D3BJ")
--------------------------------------------------------------------------

    Molecular point group: cs

    Geometry (in Angstrom), charge = 2, multiplicity = 1:

       Center              X                  Y                   Z               Mass
    ------------   -----------------  -----------------  -----------------  -----------------
         AU          -1.548281244712     0.487202496432     0.000000000000   196.966568790000
         AU           0.774140755288     0.487202496432     1.340851000000   196.966568790000
         AU           0.774140755288     0.487202496432    -1.340851000000   196.966568790000
         AU          -0.000000244712    -1.749707503568     0.000000000000   196.966568790000
         N           -0.000000244712     3.260011496432     0.000000000000    14.003074004430
         H           -0.469900244712     3.669912496432    -0.813891000000     1.007825032230
         H           -0.469900244712     3.669912496432     0.813891000000     1.007825032230
         H            0.939799755288     3.669912496432     0.000000000000     1.007825032230

  Charge       = 2
  Multiplicity = 1
  Basis Set: DEF2-TZVPPD
    Blend: DEF2-TZVPPD
  Basis Set: (DEF2-TZVPPD AUX)
    Blend: DEF2-UNIVERSAL-JKFIT

    Orbital Energies [Eh]
    ---------------------

    Doubly Occupied:

       1Ap   -14.460928     2Ap    -4.472548     3Ap    -4.472176
       1App   -4.472171     4Ap    -4.466742     5Ap    -2.662925
       2App   -2.657449     6Ap    -2.657446     7Ap    -2.653666
       3App   -2.652819     8Ap    -2.652801     4App   -2.650790
       9Ap    -2.650421     5App   -2.650415    10Ap    -2.649745
       6App   -2.645307    11Ap    -2.645302    12Ap    -1.137873
      13Ap    -0.755007    14Ap    -0.741551     7App   -0.741548
      15Ap    -0.698554    16Ap    -0.695030     8App   -0.695019
       9App   -0.675067    17Ap    -0.675064    18Ap    -0.656979
      19Ap    -0.652046    10App   -0.650581    20Ap    -0.650543
      21Ap    -0.618949    11App   -0.618918    22Ap    -0.616921
      12App   -0.616801    13App   -0.615469    23Ap    -0.615442
      14App   -0.613385    24Ap    -0.613347    15App   -0.589559
      16App   -0.588524    25Ap    -0.588520    26Ap    -0.568707

  @DF-RKS Final Energy:  -599.05937753741750

   => Energetics <=

    Nuclear Repulsion Energy =            547.1140380717746439
    One-Electron Energy =               -2093.4097736279049968
    Two-Electron Energy =                1006.3365561215661046
    DFT Exchange-Correlation Energy =     -59.0978052728533925
    Empirical Dispersion Energy =          -0.0023928300000000
    VV10 Nonlocal Energy =                  0.0000000000000000
    Total Energy =                       -599.0593775374175038

  Dipole Moment: [D]
     X:    -0.0001      Y:     5.3039      Z:     0.0000     Total:     5.3039

*** Psi4 exiting successfully. Buy a developer a beer!
