                               Psi4 1.4.1 release

  ==> Input File <==

--------------------------------------------------------------------------
memory 120 GB

molecule {
2 1
Au      -0.274490    1.572639   -0.000000
Au       1.635934   -0.418177    0.000000
Au      -0.639028   -0.815642    1.333593
Au      -0.639028   -0.815642   -1.333593
N       -0.639028    3.654013   -0.000000
H       -0.235750    4.112347    0.824759
H       -0.235750    4.112347   -0.824759
H       -1.642949    3.866239   -0.000000
 }

set basis Def2-TZVPPD

energy("SCAN-D3BJ")
--------------------------------------------------------------------------

    Molecular point group: cs

    Geometry (in Angstrom), charge = 2, multiplicity = 1:

       Center              X                  Y                   Z               Mass
    ------------   -----------------  -----------------  -----------------  -----------------
         AU          -0.281131004952     1.610613041947     0.000000000000   196.966568790000
         AU           1.629292995048    -0.380202958053     0.000000000000   196.966568790000
         AU          -0.645669004952    -0.777667958053     1.333593000000   196.966568790000
         AU          -0.645669004952    -0.777667958053    -1.333593000000   196.966568790000
         N           -0.645669004952     3.691987041947     0.000000000000    14.003074004430
         H           -0.242391004952     4.150321041947     0.824759000000     1.007825032230
         H           -0.242391004952     4.150321041947    -0.824759000000     1.007825032230
         H           -1.649590004952     3.904213041947     0.000000000000     1.007825032230

  Charge       = 2
  Multiplicity = 1
  Basis Set: DEF2-TZVPPD
    Blend: DEF2-TZVPPD
  Basis Set: (DEF2-TZVPPD AUX)
    Blend: DEF2-UNIVERSAL-JKFIT

    Orbital Energies [Eh]
    ---------------------

    Doubly Occupied:

       1Ap   -14.522829     2Ap    -4.462772     3Ap    -4.462351
       1App   -4.462327     4Ap    -4.462107     5Ap    -2.654339
       6Ap    -2.649592     7Ap    -2.647796     2App   -2.647791
       3App   -2.642458     8Ap    -2.642430     9Ap    -2.640863
       4App   -2.640333    10Ap    -2.640271     5App   -2.640250
       6App   -2.636656    11Ap    -2.636655    12Ap    -1.192132
      13Ap    -0.794864     7App   -0.794853    14Ap    -0.762030
      15Ap    -0.709662     8App   -0.683515    16Ap    -0.683481
      17Ap    -0.674687     9App   -0.662788    18Ap    -0.662782
      19Ap    -0.645057    10App   -0.638335    20Ap    -0.638303
      21Ap    -0.634950    22Ap    -0.608561    11App   -0.608539
      12App   -0.604958    13App   -0.604941    23Ap    -0.604937
      14App   -0.602817    24Ap    -0.602793    15App   -0.579767
      25Ap    -0.579751    16App   -0.578638    26Ap    -0.576550

  @DF-RKS Final Energy:  -599.13298286443296

   => Energetics <=

    Nuclear Repulsion Energy =            541.9645184554937032
    One-Electron Energy =               -2083.3442882698718677
    Two-Electron Energy =                1001.3430409621405488
    DFT Exchange-Correlation Energy =     -59.0940802021953999
    Empirical Dispersion Energy =          -0.0021738100000000
    VV10 Nonlocal Energy =                  0.0000000000000000
    Total Energy =                       -599.1329828644329609

  Dipole Moment: [D]
     X:    -1.2264      Y:     7.0093      Z:     0.0000     Total:     7.1158

*** Psi4 exiting successfully. Buy a developer a beer!
