                               Psi4 1.4.1 release

  ==> Input File <==

--------------------------------------------------------------------------
memory 120 GB

molecule {
2 1
Au      -0.000000   -0.000044    1.659420
Au      -1.354966    0.782292   -0.553161
Au       1.354966    0.782292   -0.553161
Au       0.000000   -1.564540   -0.553099
 }

set basis Def2-TZVPPD

energy("SCAN-D3BJ")
--------------------------------------------------------------------------

    Molecular point group: cs

    Geometry (in Angstrom), charge = 2, multiplicity = 1:

       Center              X                  Y                   Z               Mass
    ------------   -----------------  -----------------  -----------------  -----------------
         AU           0.000044000000    -1.659420250000     0.000000000000   196.966568790000
         AU          -0.782292000000     0.553160750000    -1.354966000000   196.966568790000
         AU          -0.782292000000     0.553160750000     1.354966000000   196.966568790000
         AU           1.564540000000     0.553098750000     0.000000000000   196.966568790000

  Charge       = 2
  Multiplicity = 1
  Basis Set: DEF2-TZVPPD
    Blend: DEF2-TZVPPD
  Basis Set: (DEF2-TZVPPD AUX)
    Blend: DEF2-UNIVERSAL-JKFIT

    Orbital Energies [Eh]
    ---------------------

    Doubly Occupied:

       1Ap    -4.500970     2Ap    -4.500558     1App   -4.500546
       3Ap    -4.500540     4Ap    -2.691899     5Ap    -2.686078
       2App   -2.686070     6Ap    -2.686067     7Ap    -2.680883
       3App   -2.680874     8Ap    -2.679879     9Ap    -2.679873
       4App   -2.679871     5App   -2.678369    10Ap    -2.678368
       6App   -2.678356    11Ap    -0.782761    12Ap    -0.723999
       7App   -0.723995    13Ap    -0.723987    14Ap    -0.703895
       8App   -0.703891    15Ap    -0.680552     9App   -0.680549
      16Ap    -0.680534    17Ap    -0.672922    18Ap    -0.647103
      10App   -0.647098    19Ap    -0.647093    11App   -0.645022
      20Ap    -0.645007    12App   -0.645003    13App   -0.643721
      21Ap    -0.643716    14App   -0.618497    22Ap    -0.618494
      15App   -0.618485

  @DF-RKS Final Energy:  -542.45421541103451

   => Energetics <=

    Nuclear Repulsion Energy =            422.9698522073878166
    One-Electron Energy =               -1770.2810680834477353
    Two-Electron Energy =                 855.9664900750312881
    DFT Exchange-Correlation Energy =     -51.1082625000057789
    Empirical Dispersion Energy =          -0.0012271100000000
    VV10 Nonlocal Energy =                  0.0000000000000000
    Total Energy =                       -542.4542154110345109

  Dipole Moment: [D]
     X:     0.0006      Y:     0.0006      Z:     0.0000     Total:     0.0008

*** Psi4 exiting successfully. Buy a developer a beer!
