                               Psi4 1.4.1 release

  ==> Input File <==

--------------------------------------------------------------------------
memory 144 GB

molecule {
0 1
Cu       0.000000    0.000000    0.412716
F        0.000000    0.000000   -1.329863
 }

set basis Def2-TZVPPD

energy("SCAN-D3BJ")
--------------------------------------------------------------------------

    Molecular point group: c2v

    Geometry (in Angstrom), charge = 0, multiplicity = 1:

       Center              X                  Y                   Z               Mass
    ------------   -----------------  -----------------  -----------------  -----------------
         CU           0.000000000000     0.000000000000     0.404089176206    62.929597720000
         F            0.000000000000     0.000000000000    -1.338489823794    18.998403162730

  Charge       = 0
  Multiplicity = 1
  Basis Set: DEF2-TZVPPD
    Blend: DEF2-TZVPPD
  Basis Set: (DEF2-TZVPPD AUX)
    Blend: DEF2-UNIVERSAL-JKFIT

    Orbital Energies [Eh]
    ---------------------

    Doubly Occupied:

       1A1  -322.426898     2A1   -38.681673     3A1   -33.864039
       1B2   -33.862166     1B1   -33.862166     4A1   -24.411822
       5A1    -4.305550     6A1    -2.780678     2B2    -2.770126
       2B1    -2.770126     7A1    -1.033993     8A1    -0.360000
       3B2    -0.316236     3B1    -0.316236     9A1    -0.246054
       1A2    -0.246052     4B2    -0.232084     4B1    -0.232084
      10A1    -0.225086

  @DF-RKS Final Energy: -1740.56551776538390

   => Energetics <=

    Nuclear Repulsion Energy =             79.2591050304577180
    One-Electron Energy =               -2585.3437858310508091
    Two-Electron Energy =                 843.3711665466100840
    DFT Exchange-Correlation Energy =     -77.8519361214010672
    Empirical Dispersion Energy =          -0.0000673900000000
    VV10 Nonlocal Energy =                  0.0000000000000000
    Total Energy =                      -1740.5655177653839019

  Dipole Moment: [D]
     X:     0.0000      Y:     0.0000      Z:     4.7263     Total:     4.7263

*** Psi4 exiting successfully. Buy a developer a beer!
