                               Psi4 1.4.1 release

  ==> Input File <==

--------------------------------------------------------------------------
memory 144 GB

molecule {
0 2
Cu       0.000000    0.000000    0.000000
 }

set reference uks
set basis Def2-TZVPPD

energy("SCAN-D3BJ")
--------------------------------------------------------------------------

    Molecular point group: d2h
    Geometry (in Angstrom), charge = 0, multiplicity = 2:

       Center              X                  Y                   Z               Mass
    ------------   -----------------  -----------------  -----------------  -----------------
         CU           0.000000000000     0.000000000000     0.000000000000    62.929597720000

  Charge       = 0
  Multiplicity = 2
  Basis Set: DEF2-TZVPPD
    Blend: DEF2-TZVPPD
  Basis Set: (DEF2-TZVPPD AUX)
    Blend: DEF2-UNIVERSAL-JKFIT

    Orbital Energies [Eh]
    ---------------------

    Alpha Occupied:

       1Ag  -322.367796     2Ag   -38.614930     1B1u  -33.797798
       1B3u  -33.797798     1B2u  -33.797798     3Ag    -4.239879
       2B1u   -2.708680     2B3u   -2.708680     2B2u   -2.708680
       1B3g   -0.195214     1B2g   -0.195214     4Ag    -0.195214
       1B1g   -0.195214     5Ag    -0.195214     6Ag    -0.186204

    Alpha Virtual:

       3B2u   -0.028051     3B3u   -0.028051     3B1u   -0.028051
       7Ag     0.089420     4B2u    0.143204     4B3u    0.143204
       4B1u    0.143204     8Ag     0.169805     2B1g    0.169805
       9Ag     0.169805     2B2g    0.169805     2B3g    0.169805
       5B2u    0.639738     5B3u    0.639738     5B1u    0.639738
      10Ag     0.862768     3B1g    0.862768    11Ag     0.862769
       3B3g    0.862769     3B2g    0.862769    12Ag     2.884928
       6B3u    2.987985     6B2u    2.987985     6B1u    2.987985
       7B3u    3.435116     7B2u    3.435116     7B1u    3.435116
       1Au     3.435116     8B2u    3.435116     8B3u    3.435116
       8B1u    3.435116    13Ag     3.666241     4B1g    3.666241
       4B3g    3.666241     4B2g    3.666241    14Ag     3.666241
      15Ag    13.152905     5B1g   13.152905     5B2g   13.152905
       5B3g   13.152905     6B2g   13.152905     6B3g   13.152905
      16Ag    13.152905     6B1g   13.152905    17Ag    13.152905
       9B3u   13.235073     9B1u   13.235073     9B2u   13.235073
       2Au    13.235073    10B1u   13.235073    10B3u   13.235073
      10B2u   13.235073

    Beta Occupied:

       1Ag  -322.365346     2Ag   -38.619687     1B1u  -33.800657
       1B2u  -33.800657     1B3u  -33.800657     3Ag    -4.245224
       2B2u   -2.713618     2B3u   -2.713617     2B1u   -2.713617
       4Ag    -0.189870     1B1g   -0.189870     5Ag    -0.189870
       1B3g   -0.189870     1B2g   -0.189870

    Beta Virtual:

       6Ag    -0.124163     3B1u    0.008674     3B3u    0.008674
       3B2u    0.008674     7Ag     0.104901     4B1u    0.143649
       4B3u    0.143649     4B2u    0.143649     2B2g    0.196297
       8Ag     0.196297     2B3g    0.196297     2B1g    0.196297
       9Ag     0.196297     5B1u    0.668102     5B3u    0.668102
       5B2u    0.668102     3B2g    0.893771     3B3g    0.893771
      10Ag     0.893771     3B1g    0.893771    11Ag     0.893771
      12Ag     2.886777     6B2u    2.990428     6B3u    2.990428
       6B1u    2.990428     7B2u    3.444515     7B3u    3.444515
       7B1u    3.444515     1Au     3.444515     8B1u    3.444515
       8B2u    3.444515     8B3u    3.444515    13Ag     3.665060
       4B1g    3.665060    14Ag     3.665060     4B3g    3.665060
       4B2g    3.665060    15Ag    13.159984     5B1g   13.159984
       5B3g   13.159984     5B2g   13.159984    16Ag    13.159984
       6B1g   13.159984     6B3g   13.159984     6B2g   13.159984
      17Ag    13.159984     9B2u   13.236526     9B3u   13.236526
       9B1u   13.236526    10B2u   13.236526     2Au    13.236526
      10B1u   13.236526    10B3u   13.236526

    Final Occupation by Irrep:
             Ag   B1g   B2g   B3g    Au   B1u   B2u   B3u
    DOCC [     5,    1,    1,    1,    0,    2,    2,    2 ]
    SOCC [     1,    0,    0,    0,    0,    0,    0,    0 ]

  @DF-UKS Final Energy: -1640.66814279877281

   => Energetics <=

    Nuclear Repulsion Energy =              0.0000000000000000
    One-Electron Energy =               -2288.0235145872625253
    Two-Electron Energy =                 714.7555560349637744
    DFT Exchange-Correlation Energy =     -67.4001842464741117
    Empirical Dispersion Energy =           0.0000000000000000
    VV10 Nonlocal Energy =                  0.0000000000000000
    Total Energy =                      -1640.6681427987728057

  UHF NO Occupations:
  HONO-2 :    1B1g 1.9994239
  HONO-1 :    5 Ag 1.9994239
  HONO-0 :    6 Ag 1.0000000
  LUNO+0 :    7 Ag 0.0005761
  LUNO+1 :    2B1g 0.0005761
  LUNO+2 :    8 Ag 0.0005761
  LUNO+3 :    2B3g 0.0005761

Computation Completed

Properties will be evaluated at   0.000000,   0.000000,   0.000000 [a0]

Properties computed using the SCF density matrix

  Nuclear Dipole Moment: [e a0]
     X:     0.0000      Y:     0.0000      Z:     0.0000

  Electronic Dipole Moment: [e a0]
     X:     0.0000      Y:     0.0000      Z:     0.0000

  Dipole Moment: [e a0]
     X:     0.0000      Y:     0.0000      Z:     0.0000     Total:     0.0000

  Dipole Moment: [D]
     X:     0.0000      Y:     0.0000      Z:     0.0000     Total:     0.0000

*** tstop() called on compute404.bc4.acrc.priv at Tue Nov  2 11:11:47 2021
Module time:
	user time   =      72.81 seconds =       1.21 minutes
	system time =       2.71 seconds =       0.05 minutes
	total time  =          4 seconds =       0.07 minutes
Total time:
	user time   =      72.81 seconds =       1.21 minutes
	system time =       2.71 seconds =       0.05 minutes
	total time  =          4 seconds =       0.07 minutes

    Psi4 stopped on: Tuesday, 02 November 2021 11:11AM
    Psi4 wall time for execution: 0:00:04.44

*** Psi4 exiting successfully. Buy a developer a beer!
