                               Psi4 1.4.1 release

  ==> Input File <==

--------------------------------------------------------------------------
memory 144 GB

molecule {
0 1
Cu       0.000000    0.000000    0.048513
H        0.000000    0.000000   -1.406870
 }

set basis Def2-TZVPPD

energy("SCAN-D3BJ")
--------------------------------------------------------------------------

    Molecular point group: c2v

    Geometry (in Angstrom), charge = 0, multiplicity = 1:

       Center              X                  Y                   Z               Mass
    ------------   -----------------  -----------------  -----------------  -----------------
         CU           0.000000000000     0.000000000000     0.022940734170    62.929597720000
         H            0.000000000000     0.000000000000    -1.432442265830     1.007825032230

  Charge       = 0
  Multiplicity = 1
  Basis Set: DEF2-TZVPPD
    Blend: DEF2-TZVPPD
  Basis Set: (DEF2-TZVPPD AUX)
    Blend: DEF2-UNIVERSAL-JKFIT

    Orbital Energies [Eh]
    ---------------------

    Doubly Occupied:

       1A1  -322.402988     2A1   -38.659949     3A1   -33.843739
       1B1   -33.839866     1B2   -33.839866     4A1    -4.279285
       5A1    -2.755102     2B2    -2.742859     2B1    -2.742859
       6A1    -0.308457     3B1    -0.229843     3B2    -0.229843
       7A1    -0.217757     1A2    -0.217757     8A1    -0.205520

  @DF-RKS Final Energy: -1641.27313680998782

   => Energetics <=

    Nuclear Repulsion Energy =             10.5443990409603536
    One-Electron Energy =               -2308.7047135838793110
    Two-Electron Energy =                 724.6057414303675159
    DFT Exchange-Correlation Energy =     -67.7185011074362819
    Empirical Dispersion Energy =          -0.0000625900000000
    VV10 Nonlocal Energy =                  0.0000000000000000
    Total Energy =                      -1641.2731368099878182

  Dipole Moment: [D]
     X:     0.0000      Y:     0.0000      Z:     2.4361     Total:     2.4361

*** Psi4 exiting successfully. Buy a developer a beer!
