                               Psi4 1.4.1 release

  ==> Input File <==

--------------------------------------------------------------------------
memory 144 GB

molecule {
0 1
Cu       0.000000    0.000000    1.107490
Cu       0.000000    0.000000   -1.107490
 }

set basis Def2-TZVPPD

energy("SCAN-D3BJ")
--------------------------------------------------------------------------

    Molecular point group: d2h

    Geometry (in Angstrom), charge = 0, multiplicity = 1:

       Center              X                  Y                   Z               Mass
    ------------   -----------------  -----------------  -----------------  -----------------
         CU           0.000000000000     0.000000000000     1.107490000000    62.929597720000
         CU           0.000000000000     0.000000000000    -1.107490000000    62.929597720000

  Charge       = 0
  Multiplicity = 1
  Basis Set: DEF2-TZVPPD
    Blend: DEF2-TZVPPD
  Basis Set: (DEF2-TZVPPD AUX)
    Blend: DEF2-UNIVERSAL-JKFIT

    Orbital Energies [Eh]
    ---------------------

    Doubly Occupied:

       1B1u -322.369674     1Ag  -322.369663     2B1u  -38.623760
       2Ag   -38.623727     3Ag   -33.806110     3B1u  -33.806109
       1B3g  -33.804871     1B2g  -33.804871     1B2u  -33.804868
       1B3u  -33.804868     4Ag    -4.246910     4B1u   -4.246261
       5Ag    -2.720923     5B1u   -2.715666     2B2u   -2.713012
       2B3u   -2.713012     2B3g   -2.712486     2B2g   -2.712486
       6Ag    -0.241049     3B2u   -0.215597     3B3u   -0.215597
       1B1g   -0.195506     7Ag    -0.195478     8Ag    -0.193590
       1Au    -0.186574     6B1u   -0.186542     3B3g   -0.179467
       3B2g   -0.179467     7B1u   -0.177858

  @DF-RKS Final Energy: -3281.41216607815704

   => Energetics <=

    Nuclear Repulsion Energy =            200.9219199150647057
    One-Electron Energy =               -4977.7605016675188381
    Two-Electron Energy =                1630.2322285488735361
    DFT Exchange-Correlation Energy =    -134.8056636745763512
    Empirical Dispersion Energy =          -0.0001492000000000
    VV10 Nonlocal Energy =                  0.0000000000000000
    Total Energy =                      -3281.4121660781570426

  Dipole Moment: [D]
     X:     0.0000      Y:     0.0000      Z:    -0.0000     Total:     0.0000

*** Psi4 exiting successfully. Buy a developer a beer!
