                               Psi4 1.4.1 release

  ==> Input File <==

--------------------------------------------------------------------------
memory 144 GB

molecule {
0 2
Cu       0.000000    1.346828   -0.000000
Cu       1.166387   -0.673414   -0.000000
Cu      -1.166387   -0.673414   -0.000000
 }

set reference uks
set basis Def2-TZVPPD

energy("SCAN-D3BJ")
--------------------------------------------------------------------------

    Molecular point group: c2v

    Geometry (in Angstrom), charge = 0, multiplicity = 2:

       Center              X                  Y                   Z               Mass
    ------------   -----------------  -----------------  -----------------  -----------------
         CU           0.000000000000    -0.000000000000     1.346828000000    62.929597720000
         CU           1.166387000000     0.000000000000    -0.673414000000    62.929597720000
         CU          -1.166387000000    -0.000000000000    -0.673414000000    62.929597720000

  Charge       = 0
  Multiplicity = 2
  Basis Set: DEF2-TZVPPD
    Blend: DEF2-TZVPPD
  Basis Set: (DEF2-TZVPPD AUX)
    Blend: DEF2-UNIVERSAL-JKFIT

    Orbital Energies [Eh]
    ---------------------

    Alpha Occupied:

       1B1  -322.394551     1A1  -322.394543     2A1  -322.387803
       2B1   -38.649420     3A1   -38.649395     4A1   -38.645413
       3B1   -33.831780     5A1   -33.831778     4B1   -33.831015
       6A1   -33.831009     1A2   -33.829750     1B2   -33.829747
       7A1   -33.828265     5B1   -33.827688     2B2   -33.823754
       8A1    -4.271731     6B1    -4.271385     9A1    -4.265333
      10A1    -2.744712     7B1    -2.741541    11A1    -2.739219
       8B1    -2.738459     3B2    -2.736811     2A2    -2.736513
      12A1    -2.735341     9B1    -2.734510     4B2    -2.727022
      13A1    -0.289817    14A1    -0.246728    10B1    -0.244713
       5B2    -0.242210    15A1    -0.238962     6B2    -0.225016
       3A2    -0.221765    16A1    -0.219523    11B1    -0.208945
      12B1    -0.206820     4A2    -0.205064    17A1    -0.204920
      18A1    -0.201090     5A2    -0.199900     7B2    -0.199192
      13B1    -0.192611    19A1    -0.141309

    Alpha Virtual:

      14B1    -0.129523     8B2    -0.064853    20A1    -0.041758
      15B1    -0.020887    21A1    -0.014543     9B2     0.030153
       6A2     0.031040    16B1     0.052078    22A1     0.070273
      17B1     0.096246    23A1     0.105801    10B2     0.105992
      24A1     0.110865    18B1     0.134311    25A1     0.143320
       7A2     0.156028    11B2     0.170201    26A1     0.178039
      19B1     0.195560    12B2     0.203527     8A2     0.205311
      27A1     0.207879    20B1     0.210023    21B1     0.228176
      28A1     0.230025    13B2     0.231981    29A1     0.285928
      22B1     0.290748     9A2     0.310420    30A1     0.318786
      10A2     0.342453    23B1     0.343524    31A1     0.352957
      14B2     0.354441    24B1     0.450596    25B1     0.478522
      32A1     0.493781    15B2     0.624090    33A1     0.624256
      34A1     0.675172    26B1     0.680842    11A2     0.721314
      16B2     0.731405    35A1     0.766746    27B1     0.770957
      17B2     0.787702    36A1     0.787932    18B2     0.823983
      12A2     0.828720    37A1     0.908984    28B1     0.919510
      29B1     0.930071    38A1     0.931230    13A2     1.012774
      30B1     1.024627    39A1     1.034970    14A2     1.073570
      19B2     1.082154    31B1     1.247540    40A1     1.252832
      32B1     1.272302    20B2     2.943839    41A1     2.983175
      42A1     3.020072    33B1     3.027345    15A2     3.052756
      21B2     3.066088    34B1     3.072756    43A1     3.075835
      44A1     3.085852    35B1     3.201371    45A1     3.368069
      36B1     3.385647    22B2     3.392654    46A1     3.397178
      23B2     3.401884    16A2     3.402129    37B1     3.417982
      47A1     3.419309    24B2     3.422633    17A2     3.423741
      38B1     3.426430    18A2     3.429190    48A1     3.429222
      39B1     3.431457    49A1     3.433519    19A2     3.433806
      25B2     3.434836    26B2     3.437070    40B1     3.441694
      50A1     3.465163    41B1     3.516689    42B1     3.565270
      51A1     3.575848    27B2     3.667480    52A1     3.672025
      20A2     3.673526    28B2     3.705412    43B1     3.722847
      53A1     3.732136    21A2     3.747845    22A2     3.795893
      29B2     3.808538    54A1     3.941425    44B1     3.941435
      55A1     3.963310    45B1     4.002245    46B1     4.244820
      56A1     4.250754    57A1    13.124283    47B1    13.124715
      23A2    13.125751    48B1    13.125920    30B2    13.125924
      58A1    13.126424    31B2    13.127269    24A2    13.127415
      49B1    13.128351    59A1    13.128384    25A2    13.128892
      50B1    13.129016    60A1    13.129059    32B2    13.129091
      61A1    13.129459    51B1    13.130604    62A1    13.131841
      52B1    13.131853    26A2    13.132230    33B2    13.132267
      34B2    13.132696    27A2    13.133830    53B1    13.136219
      63A1    13.136301    35B2    13.137769    28A2    13.138612
      64A1    13.138664    54B1    13.202861    65A1    13.203049
      36B2    13.203442    29A2    13.204227    66A1    13.204312
      37B2    13.205648    30A2    13.207555    67A1    13.208083
      55B1    13.208745    38B2    13.210579    39B2    13.212061
      56B1    13.212814    31A2    13.215755    68A1    13.219351
      57B1    13.220049    69A1    13.221251    32A2    13.224593
      40B2    13.227445    58B1    13.303869    59B1    13.309712
      70A1    13.310985

    Beta Occupied:

       1B1  -322.394197     1A1  -322.394189     2A1  -322.386443
       2B1   -38.649793     3A1   -38.649768     4A1   -38.645259
       3B1   -33.831952     5A1   -33.831950     4B1   -33.831153
       6A1   -33.831147     1A2   -33.830010     1B2   -33.830008
       7A1   -33.827543     5B1   -33.827078     2B2   -33.824162
       8A1    -4.272135     6B1    -4.271794     9A1    -4.263834
      10A1    -2.744627     7B1    -2.742194    11A1    -2.739692
       8B1    -2.738443     3B2    -2.737108     2A2    -2.736813
      12A1    -2.733937     9B1    -2.731611     4B2    -2.727412
      13A1    -0.287065    14A1    -0.244418     5B2    -0.242139
      10B1    -0.238955    15A1    -0.233769     6B2    -0.223543
       3A2    -0.220319    16A1    -0.216901    11B1    -0.208204
      12B1    -0.206271     4A2    -0.204535    17A1    -0.202515
       5A2    -0.197064    18A1    -0.195765     7B2    -0.195280
      13B1    -0.185830

    Beta Virtual:

      14B1    -0.119884    19A1    -0.096276     8B2    -0.054780
      20A1    -0.024976    21A1     0.001610    15B1     0.002214
       6A2     0.033069     9B2     0.041636    22A1     0.042341
      16B1     0.045644    17B1     0.084524    23A1     0.095801
      10B2     0.100963    24A1     0.110428    25A1     0.118533
      18B1     0.120340     7A2     0.152774    11B2     0.160826
      26A1     0.187113    19B1     0.189364    27A1     0.191113
      20B1     0.204390    12B2     0.208065     8A2     0.210785
      21B1     0.215529    28A1     0.221839    13B2     0.234652
      22B1     0.286326    29A1     0.287271     9A2     0.308291
      30A1     0.309500    23B1     0.331377    31A1     0.331708
      10A2     0.337216    14B2     0.341801    24B1     0.435562
      32A1     0.465980    25B1     0.466325    33A1     0.615692
      15B2     0.623837    34A1     0.670899    26B1     0.673416
      11A2     0.719777    16B2     0.728299    35A1     0.764422
      27B1     0.766593    36A1     0.780197    17B2     0.788826
      18B2     0.826303    12A2     0.830154    37A1     0.906912
      28B1     0.907637    38A1     0.932243    29B1     0.932886
      13A2     1.018482    30B1     1.028349    39A1     1.035545
      14A2     1.073919    19B2     1.081658    31B1     1.247127
      40A1     1.251947    32B1     1.278150    20B2     2.942599
      41A1     2.984085    42A1     3.021100    33B1     3.024129
      15A2     3.052744    21B2     3.062079    34B1     3.073139
      43A1     3.074414    44A1     3.080227    35B1     3.202544
      45A1     3.371810    36B1     3.384880    22B2     3.392330
      46A1     3.394078    23B2     3.406058    16A2     3.407624
      37B1     3.420718    47A1     3.421503    24B2     3.424260
      17A2     3.424779    38B1     3.426794    18A2     3.428694
      48A1     3.430734    39B1     3.434912    49A1     3.436225
      19A2     3.438479    25B2     3.438643    26B2     3.440510
      40B1     3.445099    50A1     3.468355    41B1     3.515846
      42B1     3.565593    51A1     3.572536    27B2     3.667361
      52A1     3.671192    20A2     3.672610    28B2     3.704905
      43B1     3.722247    53A1     3.729788    21A2     3.747565
      22A2     3.795507    29B2     3.805219    54A1     3.940212
      44B1     3.944443    55A1     3.961847    45B1     4.002610
      46B1     4.243933    56A1     4.248120    57A1    13.125594
      47B1    13.125982    23A2    13.126718    30B2    13.126757
      58A1    13.127274    48B1    13.127311    24A2    13.128421
      31B2    13.128446    49B1    13.129405    59A1    13.129887
      50B1    13.130702    60A1    13.130848    25A2    13.130871
      32B2    13.131095    61A1    13.133180    51B1    13.133206
      26A2    13.133274    33B2    13.133309    62A1    13.135614
      52B1    13.137059    34B2    13.138810    27A2    13.139880
      63A1    13.140884    35B2    13.143234    53B1    13.143245
      28A2    13.144537    64A1    13.144870    36B2    13.204046
      65A1    13.204335    54B1    13.204594    66A1    13.205169
      29A2    13.205482    37B2    13.207432    30A2    13.208052
      55B1    13.209364    67A1    13.210355    38B2    13.211228
      39B2    13.215230    56B1    13.216508    31A2    13.218146
      68A1    13.220260    57B1    13.221766    69A1    13.225312
      32A2    13.227648    40B2    13.229211    58B1    13.305235
      70A1    13.312188    59B1    13.312364

    Final Occupation by Irrep:
             A1    A2    B1    B2
    DOCC [    18,    5,   13,    7 ]
    SOCC [     1,    0,    0,    0 ]

  @DF-UKS Final Energy: -4922.13744294185017

   => Energetics <=

    Nuclear Repulsion Energy =            572.3288892399986025
    One-Electron Energy =               -8006.6261785652068284
    Two-Electron Energy =                2714.3609459460685684
    DFT Exchange-Correlation Energy =    -202.2006599627096364
    Empirical Dispersion Energy =          -0.0004396000000000
    VV10 Nonlocal Energy =                  0.0000000000000000
    Total Energy =                      -4922.1374429418492582

  UHF NO Occupations:
  HONO-2 :   18 A1 1.9945645
  HONO-1 :   13 B1 1.9897003
  HONO-0 :   19 A1 1.0000000
  LUNO+0 :   14 B1 0.0102997
  LUNO+1 :   20 A1 0.0054355
  LUNO+2 :   15 B1 0.0008561
  LUNO+3 :    8 B2 0.0006818

Computation Completed

Properties will be evaluated at   0.000000,   0.000000,   0.000000 [a0]

Properties computed using the SCF density matrix

  Nuclear Dipole Moment: [e a0]
     X:    -0.0000      Y:    -0.0000      Z:     0.0000

  Electronic Dipole Moment: [e a0]
     X:     0.0000      Y:     0.0000      Z:    -0.3356

  Dipole Moment: [e a0]
     X:    -0.0000      Y:    -0.0000      Z:    -0.3356     Total:     0.3356

  Dipole Moment: [D]
     X:    -0.0000      Y:    -0.0000      Z:    -0.8530     Total:     0.8530

*** tstop() called on compute405.bc4.acrc.priv at Tue Nov  2 11:12:01 2021
Module time:
	user time   =     658.42 seconds =      10.97 minutes
	system time =      22.91 seconds =       0.38 minutes
	total time  =         27 seconds =       0.45 minutes
Total time:
	user time   =     658.42 seconds =      10.97 minutes
	system time =      22.91 seconds =       0.38 minutes
	total time  =         27 seconds =       0.45 minutes

    Psi4 stopped on: Tuesday, 02 November 2021 11:12AM
    Psi4 wall time for execution: 0:00:26.88

*** Psi4 exiting successfully. Buy a developer a beer!
