                               Psi4 1.4.1 release

  ==> Input File <==

--------------------------------------------------------------------------
memory 144 GB

molecule {
1 1
Cu       0.000000    1.349261   -0.000000
Cu       1.168494   -0.674630    0.000000
Cu      -1.168494   -0.674630   -0.000000
 }

set basis Def2-TZVPPD

energy("SCAN-D3BJ")
--------------------------------------------------------------------------

    Molecular point group: c2v

    Geometry (in Angstrom), charge = 1, multiplicity = 1:

       Center              X                  Y                   Z               Mass
    ------------   -----------------  -----------------  -----------------  -----------------
         CU           0.000000000000     0.000000000000     1.349260666667    62.929597720000
         CU           1.168494000000     0.000000000000    -0.674630333333    62.929597720000
         CU          -1.168494000000    -0.000000000000    -0.674630333333    62.929597720000

  Charge       = 1
  Multiplicity = 1
  Basis Set: DEF2-TZVPPD
    Blend: DEF2-TZVPPD
  Basis Set: (DEF2-TZVPPD AUX)
    Blend: DEF2-UNIVERSAL-JKFIT

    Orbital Energies [Eh]
    ---------------------

    Doubly Occupied:

       1A1  -322.595310     1B1  -322.595290     2A1  -322.595281
       3A1   -38.848545     2B1   -38.848527     4A1   -38.848495
       5A1   -34.030955     3B1   -34.030933     6A1   -34.030931
       4B1   -34.030913     5B1   -34.030889     7A1   -34.030884
       1B2   -34.028386     1A2   -34.028367     2B2   -34.028364
       8A1    -4.472485     9A1    -4.471996     6B1    -4.471978
      10A1    -2.945527    11A1    -2.942798     7B1    -2.942789
      12A1    -2.940690     8B1    -2.940682     9B1    -2.940063
       3B2    -2.936618     4B2    -2.936194     2A2    -2.936172
      13A1    -0.487287    14A1    -0.446966    10B1    -0.446965
       5B2    -0.443726    15A1    -0.437364     3A2    -0.425338
       6B2    -0.425297    16A1    -0.415211    17A1    -0.410299
      11B1    -0.410250    18A1    -0.405368    12B1    -0.405319
       4A2    -0.404192     5A2    -0.403375     7B2    -0.403329
      13B1    -0.392653

  @DF-RKS Final Energy: -4921.91568719791394

   => Energetics <=

    Nuclear Repulsion Energy =            571.2969406416424363
    One-Electron Energy =               -7986.9712525008490047
    Two-Electron Energy =                2695.8097678203562282
    DFT Exchange-Correlation Energy =    -202.0507035890632892
    Empirical Dispersion Energy =          -0.0004395700000000
    VV10 Nonlocal Energy =                  0.0000000000000000
    Total Energy =                      -4921.9156871979130301

  Dipole Moment: [D]
     X:     0.0000      Y:     0.0000      Z:     0.0008     Total:     0.0008

*** Psi4 exiting successfully. Buy a developer a beer!
