                               Psi4 1.4.1 release

  ==> Input File <==

--------------------------------------------------------------------------
memory 144 GB

molecule {
1 1
Cu       0.000000    0.000000    0.000000
Cu       0.000000    0.000000    2.337165
Cu       0.000000    0.000000   -2.337165
 }

set basis Def2-TZVPPD

energy("SCAN-D3BJ")
--------------------------------------------------------------------------

    Molecular point group: d2h

    Geometry (in Angstrom), charge = 1, multiplicity = 1:

       Center              X                  Y                   Z               Mass
    ------------   -----------------  -----------------  -----------------  -----------------
         CU           0.000000000000     0.000000000000     0.000000000000    62.929597720000
         CU           0.000000000000     0.000000000000     2.337165000000    62.929597720000
         CU           0.000000000000     0.000000000000    -2.337165000000    62.929597720000

  Charge       = 1
  Multiplicity = 1
  Basis Set: DEF2-TZVPPD
    Blend: DEF2-TZVPPD
  Basis Set: (DEF2-TZVPPD AUX)
    Blend: DEF2-UNIVERSAL-JKFIT

    Orbital Energies [Eh]
    ---------------------

    Doubly Occupied:

       1B1u -322.593190     1Ag  -322.593186     2Ag  -322.557409
       2B1u  -38.841743     3Ag   -38.841727     4Ag   -38.812836
       5Ag   -34.025767     3B1u  -34.025765     1B2g  -34.022777
       1B3g  -34.022777     1B3u  -34.022775     1B2u  -34.022775
       4B1u  -33.995798     2B2u  -33.993435     2B3u  -33.993435
       5B1u   -4.468722     6Ag    -4.468706     7Ag    -4.434339
       6B1u   -2.940326     8Ag    -2.940189     3B3u   -2.936107
       3B2u   -2.936106     2B2g   -2.936106     2B3g   -2.936106
       7B1u   -2.907321     4B2u   -2.899529     4B3u   -2.899529
       9Ag    -0.459579     3B2g   -0.428211     3B3g   -0.428211
       8B1u   -0.423450     5B3u   -0.420605     5B2u   -0.420605
       1B1g   -0.414006    10Ag    -0.413981     1Au    -0.413475
       9B1u   -0.413450    11Ag    -0.396182     4B3g   -0.376918
       4B2g   -0.376918     2B1g   -0.375647    12Ag    -0.375616
      13Ag    -0.370638

  @DF-RKS Final Energy: -4921.84772596488256

   => Energetics <=

    Nuclear Repulsion Energy =            476.0447317299698398
    One-Electron Energy =               -7797.6722660847426596
    Two-Electron Energy =                2601.8127086295748995
    DFT Exchange-Correlation Energy =    -202.0324959296845009
    Empirical Dispersion Energy =          -0.0004043100000000
    VV10 Nonlocal Energy =                  0.0000000000000000
    Total Energy =                      -4921.8477259648825566

  Dipole Moment: [D]
     X:     0.0000      Y:     0.0000      Z:    -0.0000     Total:     0.0000

*** Psi4 exiting successfully. Buy a developer a beer!
