                               Psi4 1.4.1 release

  ==> Input File <==

--------------------------------------------------------------------------
memory 144 GB

molecule {
0 1
Cu      -0.387876   -0.085256    2.052405
Cu       1.110029    0.096858    0.214111
Cu       0.386859    0.085217   -2.052443
Cu      -1.109011   -0.096818   -0.214073
 }

set basis Def2-TZVPPD

energy("SCAN-D3BJ")
--------------------------------------------------------------------------

    Molecular point group: c1

    Geometry (in Angstrom), charge = 0, multiplicity = 1:

       Center              X                  Y                   Z               Mass
    ------------   -----------------  -----------------  -----------------  -----------------
         CU          -0.387876250000    -0.085256250000     2.052405000000    62.929597720000
         CU           1.110028750000     0.096857750000     0.214111000000    62.929597720000
         CU           0.386858750000     0.085216750000    -2.052443000000    62.929597720000
         CU          -1.109011250000    -0.096818250000    -0.214073000000    62.929597720000

  Charge       = 0
  Multiplicity = 1
  Basis Set: DEF2-TZVPPD
    Blend: DEF2-TZVPPD
  Basis Set: (DEF2-TZVPPD AUX)
    Blend: DEF2-UNIVERSAL-JKFIT

    Orbital Energies [Eh]
    ---------------------

    Doubly Occupied:

       1A   -322.394639     2A   -322.394630     3A   -322.381440
       4A   -322.381414     5A    -38.651322     6A    -38.651293
       7A    -38.639170     8A    -38.639137     9A    -33.833290
      10A    -33.833275    11A    -33.832800    12A    -33.832782
      13A    -33.831272    14A    -33.831260    15A    -33.821828
      16A    -33.821800    17A    -33.820718    18A    -33.820689
      19A    -33.818448    20A    -33.818420    21A     -4.273318
      22A     -4.272825    23A     -4.258435    24A     -4.258402
      25A     -2.746061    26A     -2.741870    27A     -2.740841
      28A     -2.740210    29A     -2.737954    30A     -2.737553
      31A     -2.729256    32A     -2.729023    33A     -2.726236
      34A     -2.726143    35A     -2.721685    36A     -2.721657
      37A     -0.297538    38A     -0.268024    39A     -0.248159
      40A     -0.245352    41A     -0.243277    42A     -0.233584
      43A     -0.220800    44A     -0.219690    45A     -0.219253
      46A     -0.205462    47A     -0.205370    48A     -0.203801
      49A     -0.203782    50A     -0.201299    51A     -0.200158
      52A     -0.198264    53A     -0.195188    54A     -0.193280
      55A     -0.191394    56A     -0.191117    57A     -0.182069
      58A     -0.169370

  @DF-RKS Final Energy: -6562.90582850915962

   => Energetics <=

    Nuclear Repulsion Energy =           1051.1684347552327381
    One-Electron Energy =              -11252.0961882462142967
    Two-Electron Energy =                3907.6378068863969020
    DFT Exchange-Correlation Energy =    -269.6150271845758652
    Empirical Dispersion Energy =          -0.0008547200000000
    VV10 Nonlocal Energy =                  0.0000000000000000
    Total Energy =                      -6562.9058285091596190

  Dipole Moment: [D]
     X:     0.0018      Y:     0.0001      Z:     0.0014     Total:     0.0023

*** Psi4 exiting successfully. Buy a developer a beer!
