                               Psi4 1.4.1 release

  ==> Input File <==

--------------------------------------------------------------------------
memory 144 GB

molecule {
2 1
Cu      -0.000001   -0.000007    1.488630
Cu       0.000001   -1.403449   -0.496203
Cu       1.215485    0.701727   -0.496214
Cu      -1.215485    0.701729   -0.496213
 }

set basis Def2-TZVPPD

energy("SCAN-D3BJ")
--------------------------------------------------------------------------

    Molecular point group: c1

    Geometry (in Angstrom), charge = 2, multiplicity = 1:

       Center              X                  Y                   Z               Mass
    ------------   -----------------  -----------------  -----------------  -----------------
         CU          -0.000001000000    -0.000007000000     1.488630000000    62.929597720000
         CU           0.000001000000    -1.403449000000    -0.496203000000    62.929597720000
         CU           1.215485000000     0.701727000000    -0.496214000000    62.929597720000
         CU          -1.215485000000     0.701729000000    -0.496213000000    62.929597720000

  Charge       = 2
  Multiplicity = 1
  Basis Set: DEF2-TZVPPD
    Blend: DEF2-TZVPPD
  Basis Set: (DEF2-TZVPPD AUX)
    Blend: DEF2-UNIVERSAL-JKFIT

    Orbital Energies [Eh]
    ---------------------

    Doubly Occupied:

       1A   -322.803474     2A   -322.803473     3A   -322.803471
       4A   -322.803460     5A    -39.056313     6A    -39.056312
       7A    -39.056309     8A    -39.056272     9A    -34.238693
      10A    -34.238692    11A    -34.238689    12A    -34.238685
      13A    -34.237417    14A    -34.237415    15A    -34.237414
      16A    -34.237410    17A    -34.237407    18A    -34.237405
      19A    -34.237405    20A    -34.237403    21A     -4.680022
      22A     -4.679625    23A     -4.679623    24A     -4.679620
      25A     -3.152350    26A     -3.149758    27A     -3.149755
      28A     -3.149751    29A     -3.146827    30A     -3.146814
      31A     -3.146472    32A     -3.146470    33A     -3.146461
      34A     -3.145749    35A     -3.145740    36A     -3.145738
      37A     -0.719466    38A     -0.657891    39A     -0.657886
      40A     -0.657870    41A     -0.642734    42A     -0.642729
      43A     -0.638419    44A     -0.633880    45A     -0.633854
      46A     -0.633843    47A     -0.615901    48A     -0.615886
      49A     -0.615869    50A     -0.613579    51A     -0.613569
      52A     -0.613538    53A     -0.613284    54A     -0.613246
      55A     -0.599307    56A     -0.599295    57A     -0.599291

  @DF-RKS Final Energy: -6562.23790982864102

   => Energetics <=

    Nuclear Repulsion Energy =           1098.4462396717549382
    One-Electron Energy =              -11298.7972957190486341
    Two-Electron Energy =                3907.3716174267788119
    DFT Exchange-Correlation Energy =    -269.2575935481273177
    Empirical Dispersion Energy =          -0.0008776600000000
    VV10 Nonlocal Energy =                  0.0000000000000000
    Total Energy =                      -6562.2379098286410226

  Dipole Moment: [D]
     X:     0.0000      Y:     0.0004      Z:    -0.0000     Total:     0.0004

*** Psi4 exiting successfully. Buy a developer a beer!
