                               Psi4 1.4.1 release

  ==> Input File <==

--------------------------------------------------------------------------
memory 120 GB

molecule {
2 1
Cu       0.253817    1.375381    0.000000
Cu       0.253817   -0.687598    1.191098
Cu       0.253817   -0.687598   -1.191098
Cu      -1.745352    0.000159    0.000000
N        2.725949   -0.000959   -0.000000
H        3.150217   -0.936878   -0.000000
H        3.150637    0.466806   -0.810419
H        3.150637    0.466806    0.810419
 }

set basis Def2-TZVPPD

energy("SCF", write_orbitals="mos")
energy("SCAN-D3BJ", restart_file="mos")
--------------------------------------------------------------------------

    Molecular point group: cs
  Charge       = 2
  Multiplicity = 1
  Basis Set: DEF2-TZVPPD
    Blend: DEF2-TZVPPD
  Basis Set: (DEF2-TZVPPD AUX)
    Blend: DEF2-UNIVERSAL-JKFIT
  @DF-RHF Final Energy: -6611.44843386958382
    Total Energy =                      -6611.4484338695838233
    Molecular point group: cs

    Geometry (in Angstrom), charge = 2, multiplicity = 1:

       Center              X                  Y                   Z               Mass
    ------------   -----------------  -----------------  -----------------  -----------------
         CU           0.306727314614     1.375362665601     0.000000000000    62.929597720000
         CU           0.306727314614    -0.687616334399     1.191098000000    62.929597720000
         CU           0.306727314614    -0.687616334399    -1.191098000000    62.929597720000
         CU          -1.692441685386     0.000140665601     0.000000000000    62.929597720000
         N            2.778859314614    -0.000977334399     0.000000000000    14.003074004430
         H            3.203127314614    -0.936896334399     0.000000000000     1.007825032230
         H            3.203547314614     0.466787665601    -0.810419000000     1.007825032230
         H            3.203547314614     0.466787665601     0.810419000000     1.007825032230

  Charge       = 2
  Multiplicity = 1
  Basis Set: DEF2-TZVPPD
    Blend: DEF2-TZVPPD
  Basis Set: (DEF2-TZVPPD AUX)
    Blend: DEF2-UNIVERSAL-JKFIT

    Orbital Energies [Eh]
    ---------------------

    Doubly Occupied:

       1Ap  -322.767104     1App -322.767094     2Ap  -322.767088
       3Ap  -322.763287     4Ap   -39.020167     2App  -39.020155
       5Ap   -39.020138     6Ap   -39.017255     7Ap   -34.202248
       3App  -34.202234     8Ap   -34.202233     4App  -34.202103
       5App  -34.202087     9Ap   -34.202083    10Ap   -34.200626
       6App  -34.200612    11Ap   -34.200611    12Ap   -34.199782
       7App  -34.198144    13Ap   -34.198142    14Ap   -14.489863
      15Ap    -4.643862    16Ap    -4.643459     8App   -4.643449
      17Ap    -4.639665    18Ap    -3.116036    19Ap    -3.113539
       9App   -3.113533    20Ap    -3.111647    10App   -3.111637
      11App   -3.110859    21Ap    -3.110704    22Ap    -3.108923
      12App   -3.108911    23Ap    -3.108779    13App   -3.105878
      24Ap    -3.105876    25Ap    -1.167505    14App   -0.768669
      26Ap    -0.768647    27Ap    -0.691442    28Ap    -0.648590
      29Ap    -0.622625    15App   -0.622600    30Ap    -0.617497
      16App   -0.607275    31Ap    -0.607274    32Ap    -0.602221
      17App   -0.596670    33Ap    -0.596667    34Ap    -0.581890
      35Ap    -0.579836    18App   -0.579781    19App   -0.577457
      20App   -0.577216    36Ap    -0.577195    37Ap    -0.574815
      21App   -0.574810    38Ap    -0.566188    22App   -0.562770
      39Ap    -0.561159    23App   -0.561129

  @DF-RKS Final Energy: -6618.85260218269104

   => Energetics <=

    Nuclear Repulsion Energy =           1311.3739657161461309
    One-Electron Energy =              -11801.2257631288321136
    Two-Electron Energy =                4148.2611786290271993
    DFT Exchange-Correlation Energy =    -277.2600681290325610
    Empirical Dispersion Energy =          -0.0019152700000000
    VV10 Nonlocal Energy =                  0.0000000000000000
    Total Energy =                      -6618.8526021826910437

  Dipole Moment: [D]
     X:     4.1893      Y:    -0.0009      Z:    -0.0000     Total:     4.1893

*** Psi4 exiting successfully. Buy a developer a beer!
