                               Psi4 1.4.1 release

  ==> Input File <==

--------------------------------------------------------------------------
memory 144 GB

molecule {
2 1
Cu       0.543145   -0.896300    1.192832
Cu       0.543145   -0.896300   -1.192832
Cu      -1.492086   -0.543328    0.000000
Cu       0.211399    1.215580   -0.000000
N        0.543145    3.129666   -0.000000
H        0.146420    3.607894   -0.818022
H        0.146420    3.607894    0.818022
H        1.542647    3.366638   -0.000000
 }

set basis Def2-TZVPPD

energy("SCAN-D3BJ")
--------------------------------------------------------------------------

    Molecular point group: cs

    Geometry (in Angstrom), charge = 2, multiplicity = 1:

       Center              X                  Y                   Z               Mass
    ------------   -----------------  -----------------  -----------------  -----------------
         CU           0.553481103940    -0.836716104147     1.192832000000    62.929597720000
         CU           0.553481103940    -0.836716104147    -1.192832000000    62.929597720000
         CU          -1.481749896060    -0.483744104147     0.000000000000    62.929597720000
         CU           0.221735103940     1.275163895853     0.000000000000    62.929597720000
         N            0.553481103940     3.189249895853     0.000000000000    14.003074004430
         H            0.156756103940     3.667477895853    -0.818022000000     1.007825032230
         H            0.156756103940     3.667477895853     0.818022000000     1.007825032230
         H            1.552983103940     3.426221895853     0.000000000000     1.007825032230

  Charge       = 2
  Multiplicity = 1
  Basis Set: DEF2-TZVPPD
    Blend: DEF2-TZVPPD
  Basis Set: (DEF2-TZVPPD AUX)
    Blend: DEF2-UNIVERSAL-JKFIT

    Orbital Energies [Eh]
    ---------------------

    Doubly Occupied:

       1Ap  -322.765777     1App -322.765764     2Ap  -322.765757
       3Ap  -322.760482     4Ap   -39.020585     5Ap   -39.019224
       2App  -39.019211     6Ap   -39.019190     7Ap   -34.202447
       8Ap   -34.201492     3App  -34.201477     9Ap   -34.201475
       4App  -34.200678    10Ap   -34.200672     5App  -34.200590
       6App  -34.200571    11Ap   -34.200567    12Ap   -34.200017
       7App  -34.200006    13Ap   -34.200003    14Ap   -14.504156
      15Ap    -4.642518    16Ap    -4.642122     8App   -4.642112
      17Ap    -4.639562    18Ap    -3.114891    19Ap    -3.112222
       9App   -3.112213    20Ap    -3.110516    21Ap    -3.109509
      10App   -3.109507    11App   -3.108537    22Ap    -3.108204
      23Ap    -3.108044    12App   -3.108035    13App   -3.104554
      24Ap    -3.104546    25Ap    -1.182490    26Ap    -0.782344
      14App   -0.782284    27Ap    -0.707726    28Ap    -0.662239
      29Ap    -0.619977    30Ap    -0.619169    15App   -0.619152
      16App   -0.604672    31Ap    -0.604638    32Ap    -0.602733
      33Ap    -0.597355    17App   -0.594239    34Ap    -0.594220
      35Ap    -0.577891    18App   -0.577842    19App   -0.575169
      20App   -0.574855    36Ap    -0.574825    21App   -0.572629
      37Ap    -0.572622    22App   -0.560976    38Ap    -0.559770
      23App   -0.559738    39Ap    -0.557737

  @DF-RKS Final Energy: -6618.90795142023580

   => Energetics <=

    Nuclear Repulsion Energy =           1296.6693314971132622
    One-Electron Energy =              -11771.8708592744478665
    Two-Electron Energy =                4133.5471959023379895
    DFT Exchange-Correlation Energy =    -277.2518613352388570
    Empirical Dispersion Energy =          -0.0017582100000000
    VV10 Nonlocal Energy =                  0.0000000000000000
    Total Energy =                      -6618.9079514202358041

  Dipole Moment: [D]
     X:     0.7160      Y:     4.1344      Z:     0.0000     Total:     4.1960

*** Psi4 exiting successfully. Buy a developer a beer!
