                               Psi4 1.4.1 release

  ==> Input File <==

--------------------------------------------------------------------------
memory 144 GB

molecule {
2 2
Cu      -0.967673    0.056725    1.180703
Cu      -0.972439   -0.054931   -1.177653
Cu       0.936359    1.185605   -0.057167
Cu       0.933653   -1.187345    0.053806
H        2.032882   -0.001578    0.009000
 }

set reference uks
set basis Def2-TZVPPD

energy("SCAN-D3BJ")
--------------------------------------------------------------------------

    Molecular point group: c1

    Geometry (in Angstrom), charge = 2, multiplicity = 2:

       Center              X                  Y                   Z               Mass
    ------------   -----------------  -----------------  -----------------  -----------------
         CU          -0.958324640850     0.056717846605     1.180744549625    62.929597720000
         CU          -0.963090640850    -0.054938153395    -1.177611450375    62.929597720000
         CU           0.945707359150     1.185597846605    -0.057125450375    62.929597720000
         CU           0.943001359150    -1.187352153395     0.053847549625    62.929597720000
         H            2.042230359150    -0.001585153395     0.009041549625     1.007825032230

  Charge       = 2
  Multiplicity = 2
  Basis Set: DEF2-TZVPPD
    Blend: DEF2-TZVPPD
  Basis Set: (DEF2-TZVPPD AUX)
    Blend: DEF2-UNIVERSAL-JKFIT

    Orbital Energies [Eh]
    ---------------------

    Alpha Occupied:

       1A   -322.834158     2A   -322.834147     3A   -322.804438
       4A   -322.804354     5A    -39.094021     6A    -39.094000
       7A    -39.057569     8A    -39.057467     9A    -34.278316
      10A    -34.278302    11A    -34.273558    12A    -34.273546
      13A    -34.269805    14A    -34.269789    15A    -34.240132
      16A    -34.240035    17A    -34.238758    18A    -34.238653
      19A    -34.238264    20A    -34.238188    21A     -4.716643
      22A     -4.716370    23A     -4.680812    24A     -4.680486
      25A     -3.194166    26A     -3.192313    27A     -3.183181
      28A     -3.182222    29A     -3.175006    30A     -3.174765
      31A     -3.152767    32A     -3.150506    33A     -3.148034
      34A     -3.147253    35A     -3.146344    36A     -3.146073
      37A     -0.781300    38A     -0.722528    39A     -0.676479
      40A     -0.675414    41A     -0.669260    42A     -0.660646
      43A     -0.659506    44A     -0.656902    45A     -0.656729
      46A     -0.649182    47A     -0.643974    48A     -0.641303
      49A     -0.631817    50A     -0.630540    51A     -0.625599
      52A     -0.621730    53A     -0.620542    54A     -0.614457
      55A     -0.613660    56A     -0.610239    57A     -0.606985
      58A     -0.585301

    Alpha Virtual:

      59A     -0.502361    60A     -0.493614    61A     -0.433216
      62A     -0.379545    63A     -0.374370    64A     -0.364639
      65A     -0.355207    66A     -0.339733    67A     -0.214070
      68A     -0.212913    69A     -0.209806    70A     -0.203839
      71A     -0.200647    72A     -0.198566    73A     -0.193854
      74A     -0.167623    75A     -0.146476    76A     -0.144933
      77A     -0.138296    78A     -0.137886    79A     -0.131008
      80A     -0.130818    81A     -0.129357    82A     -0.129208
      83A     -0.085524    84A     -0.075514    85A     -0.075421
      86A     -0.073840    87A     -0.068004    88A     -0.062532
      89A     -0.049960    90A     -0.042560    91A     -0.040820
      92A     -0.036512    93A     -0.024106    94A     -0.023021
      95A     -0.013132    96A     -0.008116    97A      0.001622
      98A      0.022023    99A      0.046980   100A      0.050659
     101A      0.052012   102A      0.055315   103A      0.059808
     104A      0.086323   105A      0.107316   106A      0.108748
     107A      0.113632   108A      0.123228   109A      0.123853
     110A      0.131860   111A      0.144508   112A      0.190229
     113A      0.227173   114A      0.335057   115A      0.336764
     116A      0.339399   117A      0.355109   118A      0.374365
     119A      0.378299   120A      0.382660   121A      0.414276
     122A      0.435586   123A      0.441372   124A      0.457269
     125A      0.468052   126A      0.482741   127A      0.490255
     128A      0.515846   129A      0.527736   130A      0.528842
     131A      0.571336   132A      0.574875   133A      0.604796
     134A      0.615607   135A      0.620198   136A      0.643954
     137A      0.644797   138A      0.667840   139A      0.673823
     140A      0.791296   141A      0.807386   142A      0.816111
     143A      0.821765   144A      0.825824   145A      0.870707
     146A      0.875686   147A      0.985772   148A      1.029458
     149A      2.224404   150A      2.411010   151A      2.509836
     152A      2.549467   153A      2.598349   154A      2.606377
     155A      2.619064   156A      2.627751   157A      2.651981
     158A      2.663585   159A      2.682301   160A      2.746858
     161A      2.749572   162A      2.790512   163A      2.813895
     164A      2.820890   165A      2.861153   166A      2.881689
     167A      2.891485   168A      2.963673   169A      2.970536
     170A      2.973006   171A      2.977421   172A      2.990299
     173A      2.997529   174A      2.998654   175A      3.003060
     176A      3.003089   177A      3.005695   178A      3.005902
     179A      3.011167   180A      3.011443   181A      3.017897
     182A      3.017931   183A      3.024278   184A      3.024528
     185A      3.025599   186A      3.038148   187A      3.040039
     188A      3.057062   189A      3.061408   190A      3.087221
     191A      3.163258   192A      3.168985   193A      3.173485
     194A      3.255680   195A      3.272918   196A      3.278452
     197A      3.292576   198A      3.304282   199A      3.328464
     200A      3.337875   201A      3.345172   202A      3.364969
     203A      3.404118   204A      3.423354   205A      3.446126
     206A      3.458541   207A      3.468655   208A      3.495383
     209A      3.518517   210A      3.543328   211A      3.554424
     212A      3.563818   213A      3.576458   214A      3.700846
     215A      3.743951   216A      3.814434   217A      3.909117
     218A      3.910201   219A      3.998038   220A      4.430630
     221A      4.626639   222A     12.678504   223A     12.680346
     224A     12.682511   225A     12.682595   226A     12.682835
     227A     12.684503   228A     12.685228   229A     12.686042
     230A     12.687129   231A     12.687808   232A     12.691947
     233A     12.692090   234A     12.692167   235A     12.692295
     236A     12.693523   237A     12.693551   238A     12.693740
     239A     12.693976   240A     12.716748   241A     12.716935
     242A     12.717407   243A     12.717559   244A     12.718016
     245A     12.718102   246A     12.718180   247A     12.718774
     248A     12.718872   249A     12.719142   250A     12.719593
     251A     12.719701   252A     12.719918   253A     12.720032
     254A     12.722475   255A     12.722576   256A     12.722716
     257A     12.722783   258A     12.768098   259A     12.769712
     260A     12.774163   261A     12.774420   262A     12.775067
     263A     12.775550   264A     12.780444   265A     12.788063
     266A     12.793000   267A     12.796804   268A     12.797924
     269A     12.799054   270A     12.800924   271A     12.801714
     272A     12.802494   273A     12.803944   274A     12.804342
     275A     12.809900   276A     12.813609   277A     12.815038
     278A     12.826394   279A     12.827414   280A     12.836762
     281A     12.837112   282A     12.855457   283A     12.886446
     284A     13.027779   285A     13.037813

    Beta Occupied:

       1A   -322.833574     2A   -322.833562     3A   -322.803918
       4A   -322.803830     5A    -39.086308     6A    -39.086288
       7A    -39.057205     8A    -39.057156     9A    -34.269841
      10A    -34.269826    11A    -34.268612    12A    -34.268598
      13A    -34.267257    14A    -34.267243    15A    -34.239555
      16A    -34.239503    17A    -34.238471    18A    -34.238410
      19A    -34.238151    20A    -34.238094    21A     -4.703667
      22A     -4.703387    23A     -4.679890    24A     -4.679595
      25A     -3.173785    26A     -3.171624    27A     -3.171190
      28A     -3.171170    29A     -3.170925    30A     -3.170409
      31A     -3.150721    32A     -3.149381    33A     -3.146960
      34A     -3.146745    35A     -3.146701    36A     -3.145162
      37A     -0.761724    38A     -0.707224    39A     -0.677326
      40A     -0.671578    41A     -0.665187    42A     -0.656887
      43A     -0.652665    44A     -0.648059    45A     -0.643193
      46A     -0.638970    47A     -0.638307    48A     -0.634633
      49A     -0.627187    50A     -0.626653    51A     -0.621838
      52A     -0.616990    53A     -0.614993    54A     -0.612785
      55A     -0.612663    56A     -0.609017    57A     -0.600887

    Beta Virtual:

      58A     -0.551263    59A     -0.494274    60A     -0.489830
      61A     -0.415668    62A     -0.374296    63A     -0.361370
      64A     -0.358818    65A     -0.349368    66A     -0.335535
      67A     -0.208284    68A     -0.206195    69A     -0.203772
      70A     -0.200669    71A     -0.199961    72A     -0.191450
      73A     -0.188424    74A     -0.167387    75A     -0.145205
      76A     -0.141176    77A     -0.135836    78A     -0.135459
      79A     -0.129906    80A     -0.129538    81A     -0.128507
      82A     -0.128320    83A     -0.081597    84A     -0.074495
      85A     -0.073985    86A     -0.071603    87A     -0.066574
      88A     -0.060208    89A     -0.044635    90A     -0.043101
      91A     -0.040395    92A     -0.035841    93A     -0.022449
      94A     -0.019283    95A     -0.012246    96A     -0.007614
      97A      0.001554    98A      0.030537    99A      0.048908
     100A      0.050854   101A      0.053574   102A      0.056957
     103A      0.065679   104A      0.082089   105A      0.107937
     106A      0.108704   107A      0.115676   108A      0.123388
     109A      0.125423   110A      0.132992   111A      0.146596
     112A      0.182018   113A      0.231399   114A      0.332506
     115A      0.339751   116A      0.340556   117A      0.353150
     118A      0.372176   119A      0.382987   120A      0.384781
     121A      0.416970   122A      0.438172   123A      0.442501
     124A      0.458112   125A      0.470441   126A      0.484181
     127A      0.489441   128A      0.519962   129A      0.528527
     130A      0.536219   131A      0.571919   132A      0.572706
     133A      0.607489   134A      0.618308   135A      0.622517
     136A      0.643177   137A      0.644592   138A      0.671918
     139A      0.679183   140A      0.803154   141A      0.822385
     142A      0.823609   143A      0.826194   144A      0.831661
     145A      0.872275   146A      0.879386   147A      1.003973
     148A      1.047991   149A      2.270593   150A      2.433486
     151A      2.532670   152A      2.551129   153A      2.603242
     154A      2.619447   155A      2.619675   156A      2.647611
     157A      2.679892   158A      2.694884   159A      2.702712
     160A      2.751180   161A      2.757343   162A      2.803722
     163A      2.816149   164A      2.832215   165A      2.866873
     166A      2.888470   167A      2.903349   168A      2.966488
     169A      2.976390   170A      2.977216   171A      2.980882
     172A      2.993623   173A      3.002467   174A      3.002555
     175A      3.006948   176A      3.007139   177A      3.008376
     178A      3.011363   179A      3.014020   180A      3.015093
     181A      3.018693   182A      3.020284   183A      3.026232
     184A      3.027207   185A      3.029386   186A      3.042737
     187A      3.045592   188A      3.059631   189A      3.067146
     190A      3.096121   191A      3.168628   192A      3.170295
     193A      3.177364   194A      3.258460   195A      3.273344
     196A      3.278739   197A      3.298307   198A      3.329849
     199A      3.340276   200A      3.342651   201A      3.365141
     202A      3.373955   203A      3.414104   204A      3.441207
     205A      3.450187   206A      3.478568   207A      3.481812
     208A      3.521674   209A      3.545438   210A      3.549091
     211A      3.575685   212A      3.576468   213A      3.581985
     214A      3.736712   215A      3.820929   216A      3.870384
     217A      3.919753   218A      3.924339   219A      4.025395
     220A      4.498487   221A      4.700567   222A     12.693480
     223A     12.693503   224A     12.693564   225A     12.693581
     226A     12.694136   227A     12.694355   228A     12.694705
     229A     12.694917   230A     12.695569   231A     12.699547
     232A     12.700518   233A     12.701845   234A     12.701966
     235A     12.702388   236A     12.702459   237A     12.702773
     238A     12.705872   239A     12.708370   240A     12.718805
     241A     12.719028   242A     12.719300   243A     12.719543
     244A     12.719975   245A     12.720256   246A     12.720725
     247A     12.720991   248A     12.721280   249A     12.721447
     250A     12.722772   251A     12.722848   252A     12.722924
     253A     12.723101   254A     12.724834   255A     12.724938
     256A     12.725227   257A     12.725312   258A     12.768480
     259A     12.775704   260A     12.775922   261A     12.776880
     262A     12.784403   263A     12.785247   264A     12.789285
     265A     12.797829   266A     12.799430   267A     12.800479
     268A     12.800499   269A     12.800528   270A     12.802867
     271A     12.804672   272A     12.805116   273A     12.806436
     274A     12.807652   275A     12.813875   276A     12.818887
     277A     12.821195   278A     12.828498   279A     12.841389
     280A     12.843892   281A     12.847611   282A     12.861592
     283A     12.889867   284A     13.051365   285A     13.062425

    Final Occupation by Irrep:
              A
    DOCC [    57 ]
    SOCC [     1 ]

  @DF-UKS Final Energy: -6562.80681399366858

   => Energetics <=

    Nuclear Repulsion Energy =           1106.1480243785747462
    One-Electron Energy =              -11312.6327015435581416
    Two-Electron Energy =                3913.2335511399846837
    DFT Exchange-Correlation Energy =    -269.5545813486689894
    Empirical Dispersion Energy =          -0.0011066200000000
    VV10 Nonlocal Energy =                  0.0000000000000000
    Total Energy =                      -6562.8068139936667649

  UHF NO Occupations:
  HONO-2 :   56  A 1.9993955
  HONO-1 :   57  A 1.9984520
  HONO-0 :   58  A 1.0000000
  LUNO+0 :   59  A 0.0015480
  LUNO+1 :   60  A 0.0006045
  LUNO+2 :   61  A 0.0004758
  LUNO+3 :   62  A 0.0003761

Computation Completed

Properties will be evaluated at   0.000000,   0.000000,   0.000000 [a0]

Properties computed using the SCF density matrix

  Nuclear Dipole Moment: [e a0]
     X:     2.0669      Y:    -0.0016      Z:     0.0092

  Electronic Dipole Moment: [e a0]
     X:    -2.1628      Y:     0.0023      Z:    -0.0101

  Dipole Moment: [e a0]
     X:    -0.0959      Y:     0.0007      Z:    -0.0010     Total:     0.0959

  Dipole Moment: [D]
     X:    -0.2438      Y:     0.0018      Z:    -0.0025     Total:     0.2439

*** tstop() called on compute415.bc4.acrc.priv at Tue Nov  2 11:14:02 2021
Module time:
	user time   =    1323.38 seconds =      22.06 minutes
	system time =      65.14 seconds =       1.09 minutes
	total time  =         53 seconds =       0.88 minutes
Total time:
	user time   =    1323.38 seconds =      22.06 minutes
	system time =      65.14 seconds =       1.09 minutes
	total time  =         53 seconds =       0.88 minutes

    Psi4 stopped on: Tuesday, 02 November 2021 11:14AM
    Psi4 wall time for execution: 0:00:52.22

*** Psi4 exiting successfully. Buy a developer a beer!
