                               Psi4 1.4.1 release

  ==> Input File <==

--------------------------------------------------------------------------
memory 144 GB

molecule {
0 2
F        0.000000    0.000000    0.000000
 }

set reference uks
set basis Def2-TZVPPD

energy("SCAN-D3BJ")
--------------------------------------------------------------------------

    Molecular point group: d2h
    Geometry (in Angstrom), charge = 0, multiplicity = 2:

       Center              X                  Y                   Z               Mass
    ------------   -----------------  -----------------  -----------------  -----------------
         F            0.000000000000     0.000000000000     0.000000000000    18.998403162730

  Charge       = 0
  Multiplicity = 2
  Basis Set: DEF2-TZVPPD
    Blend: DEF2-TZVPPD
  Basis Set: (DEF2-TZVPPD AUX)
    Blend: DEF2-UNIVERSAL-JKFIT

    Orbital Energies [Eh]
    ---------------------

    Alpha Occupied:

       1Ag   -24.599435     2Ag    -1.194992     1B1u   -0.525157
       1B3u   -0.426464     1B2u   -0.426464

    Alpha Virtual:

       3Ag     0.102192     2B1u    0.114385     2B3u    0.120474
       2B2u    0.120474     4Ag     0.493432     1B2g    0.495934
       1B3g    0.495934     5Ag     0.504500     1B1g    0.504506
       3B1u    0.669075     3B2u    0.694962     3B3u    0.694962
       6Ag     0.849589     7Ag     2.134691     2B2g    2.156896
       2B3g    2.156896     8Ag     2.208748     2B1g    2.208769
       4B1u    3.153168     4B3u    3.232900     4B2u    3.232900
       9Ag     3.784348     5B1u    6.853361     5B3u    6.867472
       5B2u    6.867472     6B1u    6.902424     1Au     6.902436
       6B2u    6.966316     6B3u    6.966316    10Ag     8.343461
       3B2g    8.375619     3B3g    8.375619    11Ag     8.460862
       3B1g    8.460897    12Ag    56.578940

    Beta Occupied:

       1Ag   -24.546204     2Ag    -1.086884     1B2u   -0.398016
       1B3u   -0.398016

    Beta Virtual:

       1B1u   -0.300083     3Ag     0.117322     2B1u    0.127177
       2B2u    0.131646     2B3u    0.131646     4Ag     0.511884
       1B3g    0.516545     1B2g    0.516545     5Ag     0.522286
       1B1g    0.522356     3B2u    0.711473     3B3u    0.711473
       3B1u    0.733050     6Ag     0.873897     2B3g    2.210137
       2B2g    2.210137     2B1g    2.214284     7Ag     2.214319
       8Ag     2.250530     4B2u    3.256636     4B3u    3.256636
       4B1u    3.306709     9Ag     3.856050     5B2u    6.903587
       5B3u    6.903587     1Au     6.911421     5B1u    6.913698
       6B2u    6.923785     6B3u    6.923786     6B1u    6.930212
       3B1g    8.432811    10Ag     8.433642     3B3g    8.474306
       3B2g    8.474306    11Ag     8.504051    12Ag    56.603136

    Final Occupation by Irrep:
             Ag   B1g   B2g   B3g    Au   B1u   B2u   B3u
    DOCC [     2,    0,    0,    0,    0,    0,    1,    1 ]
    SOCC [     0,    0,    0,    0,    0,    1,    0,    0 ]

  @DF-UKS Final Energy:   -99.74373684975282

   => Energetics <=

    Nuclear Repulsion Energy =              0.0000000000000000
    One-Electron Energy =                -139.2004382274861030
    Two-Electron Energy =                  49.8117634959450299
    DFT Exchange-Correlation Energy =     -10.3550621182117464
    Empirical Dispersion Energy =           0.0000000000000000
    VV10 Nonlocal Energy =                  0.0000000000000000
    Total Energy =                        -99.7437368497528212

  UHF NO Occupations:
  HONO-2 :    1B3u 1.9998467
  HONO-1 :    2 Ag 1.9991536
  HONO-0 :    1B1u 1.0000000
  LUNO+0 :    3 Ag 0.0008464
  LUNO+1 :    2B3u 0.0001533
  LUNO+2 :    2B2u 0.0001533
  LUNO+3 :    4 Ag 0.0000016

Computation Completed

Properties will be evaluated at   0.000000,   0.000000,   0.000000 [a0]

Properties computed using the SCF density matrix

  Nuclear Dipole Moment: [e a0]
     X:     0.0000      Y:     0.0000      Z:     0.0000

  Electronic Dipole Moment: [e a0]
     X:     0.0000      Y:     0.0000      Z:     0.0000

  Dipole Moment: [e a0]
     X:     0.0000      Y:     0.0000      Z:     0.0000     Total:     0.0000

  Dipole Moment: [D]
     X:     0.0000      Y:     0.0000      Z:     0.0000     Total:     0.0000

*** tstop() called on compute385.bc4.acrc.priv at Tue Nov  2 11:11:55 2021
Module time:
	user time   =      48.10 seconds =       0.80 minutes
	system time =       1.78 seconds =       0.03 minutes
	total time  =          3 seconds =       0.05 minutes
Total time:
	user time   =      48.10 seconds =       0.80 minutes
	system time =       1.78 seconds =       0.03 minutes
	total time  =          3 seconds =       0.05 minutes

    Psi4 stopped on: Tuesday, 02 November 2021 11:11AM
    Psi4 wall time for execution: 0:00:03.44

*** Psi4 exiting successfully. Buy a developer a beer!
