                               Psi4 1.4.1 release

  ==> Input File <==

--------------------------------------------------------------------------
memory 144 GB

molecule {
0 2
H        0.000000    0.000000    0.000000
 }

set reference uks
set basis Def2-TZVPPD

energy("SCAN-D3BJ")
--------------------------------------------------------------------------

    Molecular point group: d2h
    Geometry (in Angstrom), charge = 0, multiplicity = 2:

       Center              X                  Y                   Z               Mass
    ------------   -----------------  -----------------  -----------------  -----------------
         H            0.000000000000     0.000000000000     0.000000000000     1.007825032230

  Charge       = 0
  Multiplicity = 2
  Basis Set: DEF2-TZVPPD
    Blend: DEF2-TZVPPD
  Basis Set: (DEF2-TZVPPD AUX)
    Blend: DEF2-UNIVERSAL-JKFIT

    Orbital Energies [Eh]
    ---------------------

    Alpha Occupied:

       1Ag    -0.294233

    Alpha Virtual:

       1B1u    0.123340     1B3u    0.123340     1B2u    0.123340
       2Ag     0.246611     2B1u    0.794151     2B3u    0.794151
       2B2u    0.794151     3Ag     2.166773     4Ag     3.161864
       5Ag     3.161864     1B3g    3.161864     1B2g    3.161864
       1B1g    3.161864     3B2u    3.725710     3B1u    3.725710
       3B3u    3.725710

    Beta Occupied:

    Beta Virtual:

       1Ag    -0.061978     1B1u    0.131272     1B3u    0.131272
       1B2u    0.131272     2Ag     0.358447     2B3u    0.883901
       2B1u    0.883901     2B2u    0.883901     3Ag     2.409364
       1B1g    3.263603     4Ag     3.263604     5Ag     3.263605
       1B3g    3.263608     1B2g    3.263609     3B2u    3.877762
       3B3u    3.877764     3B1u    3.877766

    Final Occupation by Irrep:
             Ag   B1g   B2g   B3g    Au   B1u   B2u   B3u
    DOCC [     0,    0,    0,    0,    0,    0,    0,    0 ]
    SOCC [     1,    0,    0,    0,    0,    0,    0,    0 ]

  @DF-UKS Final Energy:    -0.49996394572450

   => Energetics <=

    Nuclear Repulsion Energy =              0.0000000000000000
    One-Electron Energy =                  -0.4996849908701417
    Two-Electron Energy =                   0.3110429001505258
    DFT Exchange-Correlation Energy =      -0.3113218550048837
    Empirical Dispersion Energy =           0.0000000000000000
    VV10 Nonlocal Energy =                  0.0000000000000000
    Total Energy =                         -0.4999639457244996

  UHF NO Occupations:
  HONO-0 :    1 Ag 1.0000000
  LUNO+0 :    2 Ag 0.0000000
  LUNO+1 :    3 Ag 0.0000000
  LUNO+2 :    4 Ag 0.0000000
  LUNO+3 :    3B3u 0.0000000

Computation Completed

Properties will be evaluated at   0.000000,   0.000000,   0.000000 [a0]

Properties computed using the SCF density matrix

  Nuclear Dipole Moment: [e a0]
     X:     0.0000      Y:     0.0000      Z:     0.0000

  Electronic Dipole Moment: [e a0]
     X:     0.0000      Y:     0.0000      Z:     0.0000

  Dipole Moment: [e a0]
     X:     0.0000      Y:     0.0000      Z:     0.0000     Total:     0.0000

  Dipole Moment: [D]
     X:     0.0000      Y:     0.0000      Z:     0.0000     Total:     0.0000

*** tstop() called on compute385.bc4.acrc.priv at Tue Nov  2 11:12:16 2021
Module time:
	user time   =      18.14 seconds =       0.30 minutes
	system time =       0.71 seconds =       0.01 minutes
	total time  =          3 seconds =       0.05 minutes
Total time:
	user time   =      18.14 seconds =       0.30 minutes
	system time =       0.71 seconds =       0.01 minutes
	total time  =          3 seconds =       0.05 minutes

    Psi4 stopped on: Tuesday, 02 November 2021 11:12AM
    Psi4 wall time for execution: 0:00:02.21

*** Psi4 exiting successfully. Buy a developer a beer!
