                               Psi4 1.4.1 release

  ==> Input File <==

--------------------------------------------------------------------------
memory 144 GB

molecule {
0 1
N       -0.000000    0.125670    0.000000
H       -0.933163   -0.293418    0.000000
H        0.466582   -0.293138    0.808252
H        0.466582   -0.293138   -0.808252
 }

set basis Def2-TZVPPD

energy("SCAN-D3BJ")
--------------------------------------------------------------------------

    Molecular point group: cs

    Geometry (in Angstrom), charge = 0, multiplicity = 1:

       Center              X                  Y                   Z               Mass
    ------------   -----------------  -----------------  -----------------  -----------------
         N           -0.000000059191     0.074386050971     0.000000000000    14.003074004430
         H           -0.933163059191    -0.344701949029     0.000000000000     1.007825032230
         H            0.466581940809    -0.344421949029     0.808252000000     1.007825032230
         H            0.466581940809    -0.344421949029    -0.808252000000     1.007825032230

  Charge       = 0
  Multiplicity = 1
  Basis Set: DEF2-TZVPPD
    Blend: DEF2-TZVPPD
  Basis Set: (DEF2-TZVPPD AUX)
    Blend: DEF2-UNIVERSAL-JKFIT

    Orbital Energies [Eh]
    ---------------------

    Doubly Occupied:

       1Ap   -14.129987     2Ap    -0.819618     1App   -0.423288
       3Ap    -0.423242     4Ap    -0.243361

  @DF-RKS Final Energy:   -56.55624682566553

   => Energetics <=

    Nuclear Repulsion Energy =             11.8457429207498919
    One-Electron Energy =                 -99.5095624579466147
    Two-Electron Energy =                  39.1001691198606949
    DFT Exchange-Correlation Energy =      -7.9924276483294916
    Empirical Dispersion Energy =          -0.0001687600000000
    VV10 Nonlocal Energy =                  0.0000000000000000
    Total Energy =                        -56.5562468256655251

  Dipole Moment: [D]
     X:     0.0001      Y:    -1.6059      Z:     0.0000     Total:     1.6059

*** Psi4 exiting successfully. Buy a developer a beer!
