                         Program Version 4.2.0 -  RELEASE  -
|  1> #
|  2> # Ag01N0_F ri-B2PLYP-D3BJ/Def2-TZVPPD
|  3> #
|  4> ! rijk ri-b2plyp d3bj def2-tzvppd def2/jk def2-tzvppd/c grid4 nofinalgrid
|  5>
|  6> *xyz 0 1
|  7> Ag       0.000000    0.000000    0.317712
|  8> F        0.000000    0.000000   -1.659163
|  9> *
| 10>
| 11> %maxcore 5000
| 12>
| 13> %pal
| 14> nprocs = 24
| 15> end
| 16>
| 17>
| 18>                          ****END OF INPUT****

CARTESIAN COORDINATES (ANGSTROEM)
---------------------------------
  Ag     0.000000    0.000000    0.317712
  F      0.000000    0.000000   -1.659163

 Total Charge           Charge          ....    0
 Multiplicity           Mult            ....    1
 Number of Electrons    NEL             ....   28
 Basis Dimension        Dim             ....   96

ORBITAL ENERGIES
----------------

  NO   OCC          E(Eh)            E(eV)
   0   2.0000     -25.214835      -686.1305
   1   2.0000      -4.014377      -109.2368
   2   2.0000      -2.550063       -69.3907
   3   2.0000      -2.550063       -69.3907
   4   2.0000      -2.549978       -69.3884
   5   2.0000      -1.178243       -32.0616
   6   2.0000      -0.475494       -12.9388
   7   2.0000      -0.453780       -12.3480
   8   2.0000      -0.453780       -12.3480
   9   2.0000      -0.437810       -11.9134
  10   2.0000      -0.437810       -11.9134
  11   2.0000      -0.361539        -9.8380
  12   2.0000      -0.361539        -9.8380
  13   2.0000      -0.345335        -9.3971
  14   0.0000      -0.081547        -2.2190
  15   0.0000       0.022336         0.6078
  16   0.0000       0.022336         0.6078
  17   0.0000       0.061017         1.6604
  18   0.0000       0.119310         3.2466

MULLIKEN ATOMIC CHARGES
-----------------------
   0 Ag:    0.766556
   1 F :   -0.766556
Sum of atomic charges:   -0.0000000

LOEWDIN ATOMIC CHARGES
----------------------
   0 Ag:    0.749677
   1 F :   -0.749677

  Mayer bond orders larger than 0.100000
B(  0-Ag,  1-F ) :   0.3704

MP2 TOTAL ENERGY:     -246.731778094 Eh
Dispersion correction           -0.000455369
FINAL SINGLE POINT ENERGY      -246.732233463522

DIPOLE MOMENT
-------------
                                X             Y             Z
Electronic contribution:     -0.00000       0.00000      20.43360
Nuclear contribution   :      0.00000       0.00000     -17.95816
                        -----------------------------------------
Total Dipole Moment    :     -0.00000       0.00000       2.47544
                        -----------------------------------------
Magnitude (a.u.)       :      2.47544
Magnitude (Debye)      :      6.29206

Rotational constants in cm-1:     0.000000     0.267044     0.267044
Rotational constants in MHz :     0.000000  8005.762772  8005.762772

                             ****ORCA TERMINATED NORMALLY****
TOTAL RUN TIME: 0 days 0 hours 0 minutes 5 seconds 375 msec
