                         Program Version 4.2.0 -  RELEASE  -
|  1> #
|  2> # Ag01N0_H ri-B2PLYP-D3BJ/Def2-TZVPPD
|  3> #
|  4> ! rijk ri-b2plyp d3bj def2-tzvppd def2/jk def2-tzvppd/c grid4 nofinalgrid
|  5>
|  6> *xyz 0 1
|  7> Ag       0.000000    0.000000    0.033547
|  8> H        0.000000    0.000000   -1.576706
|  9> *
| 10>
| 11> %maxcore 5000
| 12>
| 13> %pal
| 14> nprocs = 24
| 15> end
| 16>
| 17>
| 18>                          ****END OF INPUT****

CARTESIAN COORDINATES (ANGSTROEM)
---------------------------------
  Ag     0.000000    0.000000    0.033547
  H      0.000000    0.000000   -1.576706

 Total Charge           Charge          ....    0
 Multiplicity           Mult            ....    1
 Number of Electrons    NEL             ....   20
 Basis Dimension        Dim             ....   73

ORBITAL ENERGIES
----------------

  NO   OCC          E(Eh)            E(eV)
   0   2.0000      -3.995864      -108.7330
   1   2.0000      -2.533535       -68.9410
   2   2.0000      -2.527065       -68.7649
   3   2.0000      -2.527065       -68.7649
   4   2.0000      -0.455155       -12.3854
   5   2.0000      -0.417755       -11.3677
   6   2.0000      -0.417755       -11.3677
   7   2.0000      -0.411219       -11.1898
   8   2.0000      -0.411219       -11.1898
   9   2.0000      -0.280864        -7.6427
  10   0.0000      -0.043961        -1.1962
  11   0.0000       0.022429         0.6103
  12   0.0000       0.022429         0.6103
  13   0.0000       0.097861         2.6629
  14   0.0000       0.132890         3.6161

MULLIKEN ATOMIC CHARGES
-----------------------
   0 Ag:    0.071894
   1 H :   -0.071894
Sum of atomic charges:    0.0000000

LOEWDIN ATOMIC CHARGES
----------------------
   0 Ag:    0.316155
   1 H :   -0.316155

  Mayer bond orders larger than 0.100000
B(  0-Ag,  1-H ) :   1.0559

MP2 TOTAL ENERGY:     -147.472353606 Eh
Dispersion correction           -0.000364791
FINAL SINGLE POINT ENERGY      -147.472718396924

DIPOLE MOMENT
-------------
                                X             Y             Z
Electronic contribution:     -0.00000       0.00000       3.79068
Nuclear contribution   :      0.00000       0.00000      -2.47950
                        -----------------------------------------
Total Dipole Moment    :     -0.00000       0.00000       1.31117
                        -----------------------------------------
Magnitude (a.u.)       :      1.31117
Magnitude (Debye)      :      3.33274

Rotational constants in cm-1:     0.000000     6.510099     6.510099
Rotational constants in MHz :     0.000000 195167.857171 195167.857171

                             ****ORCA TERMINATED NORMALLY****
TOTAL RUN TIME: 0 days 0 hours 0 minutes 5 seconds 111 msec
