                         Program Version 4.2.0 -  RELEASE  -
|  1> #
|  2> # Ag01N0 ri-B2PLYP-D3BJ/Def2-TZVPPD
|  3> #
|  4> ! rijk ri-b2plyp d3bj def2-tzvppd def2/jk def2-tzvppd/c grid4 nofinalgrid
|  5>
|  6> *xyz 0 2
|  7> Ag       0.000000    0.000000    0.000000
|  8> *
|  9>
| 10> %maxcore 5000
| 11>
| 12> %pal
| 13> nprocs = 24
| 14> end
| 15>
| 16>
| 17>                          ****END OF INPUT****

CARTESIAN COORDINATES (ANGSTROEM)
---------------------------------
  Ag     0.000000    0.000000    0.000000

 Total Charge           Charge          ....    0
 Multiplicity           Mult            ....    2
 Number of Electrons    NEL             ....   19
 Basis Dimension        Dim             ....   56

ORBITAL ENERGIES
----------------
                 SPIN UP ORBITALS
  NO   OCC          E(Eh)            E(eV)
   0   1.0000      -3.976116      -108.1956
   1   1.0000      -2.509674       -68.2917
   2   1.0000      -2.509674       -68.2917
   3   1.0000      -2.509674       -68.2917
   4   1.0000      -0.400340       -10.8938
   5   1.0000      -0.400340       -10.8938
   6   1.0000      -0.400340       -10.8938
   7   1.0000      -0.400340       -10.8938
   8   1.0000      -0.400340       -10.8938
   9   1.0000      -0.212642        -5.7863
  10   0.0000       0.014128         0.3844
  11   0.0000       0.014128         0.3844
  12   0.0000       0.014128         0.3844
  13   0.0000       0.127470         3.4686
  14   0.0000       0.239505         6.5173

                 SPIN DOWN ORBITALS
  NO   OCC          E(Eh)            E(eV)
   0   1.0000      -3.973941      -108.1364
   1   1.0000      -2.509898       -68.2978
   2   1.0000      -2.509898       -68.2978
   3   1.0000      -2.509898       -68.2978
   4   1.0000      -0.395523       -10.7627
   5   1.0000      -0.395523       -10.7627
   6   1.0000      -0.395523       -10.7627
   7   1.0000      -0.395523       -10.7627
   8   1.0000      -0.395523       -10.7627
   9   0.0000      -0.065638        -1.7861
  10   0.0000       0.033636         0.9153
  11   0.0000       0.033636         0.9153
  12   0.0000       0.033636         0.9153
  13   0.0000       0.146678         3.9913

MULLIKEN ATOMIC CHARGES AND SPIN POPULATIONS
--------------------------------------------
   0 Ag:   -0.000000    1.000000
Sum of atomic charges         :   -0.0000000

LOEWDIN ATOMIC CHARGES AND SPIN POPULATIONS
-------------------------------------------
   0 Ag:    0.000000    1.000000

MP2 TOTAL ENERGY:     -146.887094245 Eh
Dispersion correction            0.000000000
FINAL SINGLE POINT ENERGY      -146.887094244675

DIPOLE MOMENT
-------------
                                X             Y             Z
Electronic contribution:      0.00000       0.00000      -0.00000
Nuclear contribution   :      0.00000       0.00000       0.00000
                        -----------------------------------------
Total Dipole Moment    :      0.00000       0.00000      -0.00000
                        -----------------------------------------
Magnitude (a.u.)       :      0.00000
Magnitude (Debye)      :      0.00000

Rotational constants in cm-1:     0.000000     0.000000     0.000000
Rotational constants in MHz :     0.000000     0.000000     0.000000

                             ****ORCA TERMINATED NORMALLY****
TOTAL RUN TIME: 0 days 0 hours 0 minutes 5 seconds 60 msec
