                         Program Version 4.2.0 -  RELEASE  -
|  1> #
|  2> # Ag02N0 ri-B2PLYP-D3BJ/Def2-TZVPPD
|  3> #
|  4> ! rijk ri-b2plyp d3bj def2-tzvppd def2/jk def2-tzvppd/c grid4 nofinalgrid
|  5>
|  6> *xyz 0 1
|  7> Ag       0.000000    0.000000    1.261821
|  8> Ag       0.000000    0.000000   -1.261821
|  9> *
| 10>
| 11> %maxcore 5000
| 12>
| 13> %pal
| 14> nprocs = 24
| 15> end
| 16>
| 17>
| 18>                          ****END OF INPUT****

CARTESIAN COORDINATES (ANGSTROEM)
---------------------------------
  Ag     0.000000    0.000000    1.261821
  Ag     0.000000    0.000000   -1.261821

 Total Charge           Charge          ....    0
 Multiplicity           Mult            ....    1
 Number of Electrons    NEL             ....   38
 Basis Dimension        Dim             ....  112

ORBITAL ENERGIES
----------------

  NO   OCC          E(Eh)            E(eV)
   0   2.0000      -3.969926      -108.0272
   1   2.0000      -3.969167      -108.0065
   2   2.0000      -2.510107       -68.3035
   3   2.0000      -2.503012       -68.1104
   4   2.0000      -2.503012       -68.1104
   5   2.0000      -2.502305       -68.0912
   6   2.0000      -2.502305       -68.0912
   7   2.0000      -2.501872       -68.0794
   8   2.0000      -0.432481       -11.7684
   9   2.0000      -0.414491       -11.2789
  10   2.0000      -0.414491       -11.2789
  11   2.0000      -0.393290       -10.7020
  12   2.0000      -0.393288       -10.7019
  13   2.0000      -0.385239       -10.4829
  14   2.0000      -0.385237       -10.4828
  15   2.0000      -0.371621       -10.1123
  16   2.0000      -0.371621       -10.1123
  17   2.0000      -0.362023        -9.8511
  18   2.0000      -0.220135        -5.9902
  19   0.0000      -0.050470        -1.3734
  20   0.0000       0.009740         0.2650
  21   0.0000       0.009740         0.2650
  22   0.0000       0.031462         0.8561
  23   0.0000       0.069388         1.8881

MULLIKEN ATOMIC CHARGES
-----------------------
   0 Ag:    0.000003
   1 Ag:   -0.000003
Sum of atomic charges:    0.0000000

LOEWDIN ATOMIC CHARGES
----------------------
   0 Ag:    0.000000
   1 Ag:   -0.000000

  Mayer bond orders larger than 0.100000
B(  0-Ag,  1-Ag) :   1.0325

MP2 TOTAL ENERGY:     -293.832633148 Eh
Dispersion correction           -0.002025123
FINAL SINGLE POINT ENERGY      -293.834658271269

DIPOLE MOMENT
-------------
                                X             Y             Z
Electronic contribution:      0.00000       0.00000       0.00000
Nuclear contribution   :      0.00000       0.00000       0.00000
                        -----------------------------------------
Total Dipole Moment    :      0.00000       0.00000       0.00000
                        -----------------------------------------
Magnitude (a.u.)       :      0.00000
Magnitude (Debye)      :      0.00000

Rotational constants in cm-1:     0.000000     0.049076     0.049076
Rotational constants in MHz :     0.000000  1471.266775  1471.266775

                             ****ORCA TERMINATED NORMALLY****
TOTAL RUN TIME: 0 days 0 hours 0 minutes 6 seconds 569 msec
