                         Program Version 4.2.0 -  RELEASE  -
|  1> #
|  2> # Ag03N0_D3H ri-B2PLYP-D3BJ/Def2-TZVPPD
|  3> #
|  4> ! rijk ri-b2plyp d3bj def2-tzvppd def2/jk def2-tzvppd/c grid4 nofinalgrid
|  5>
|  6> *xyz 0 2
|  7> Ag       0.000000    1.533951   -0.000000
|  8> Ag       1.328441   -0.766976    0.000000
|  9> Ag      -1.328441   -0.766976   -0.000000
| 10> *
| 11>
| 12> %maxcore 5000
| 13>
| 14> %pal
| 15> nprocs = 24
| 16> end
| 17>
| 18>
| 19>                          ****END OF INPUT****

CARTESIAN COORDINATES (ANGSTROEM)
---------------------------------
  Ag     0.000000    1.533951   -0.000000
  Ag     1.328441   -0.766976    0.000000
  Ag    -1.328441   -0.766976   -0.000000

 Total Charge           Charge          ....    0
 Multiplicity           Mult            ....    2
 Number of Electrons    NEL             ....   57
 Basis Dimension        Dim             ....  168

ORBITAL ENERGIES
----------------
                 SPIN UP ORBITALS
  NO   OCC          E(Eh)            E(eV)
   0   1.0000      -3.990350      -108.5830
   1   1.0000      -3.989957      -108.5722
   2   1.0000      -3.968816      -107.9970
   3   1.0000      -2.528698       -68.8094
   4   1.0000      -2.524459       -68.6940
   5   1.0000      -2.524433       -68.6933
   6   1.0000      -2.523387       -68.6648
   7   1.0000      -2.523109       -68.6573
   8   1.0000      -2.522972       -68.6536
   9   1.0000      -2.502475       -68.0958
  10   1.0000      -2.502029       -68.0837
  11   1.0000      -2.499944       -68.0269
  12   1.0000      -0.455098       -12.3839
  13   1.0000      -0.442126       -12.0309
  14   1.0000      -0.434591       -11.8258
  15   1.0000      -0.433073       -11.7845
  16   1.0000      -0.420037       -11.4298
  17   1.0000      -0.419104       -11.4044
  18   1.0000      -0.413570       -11.2538
  19   1.0000      -0.400178       -10.8894
  20   1.0000      -0.396321       -10.7844
  21   1.0000      -0.391982       -10.6664
  22   1.0000      -0.384097       -10.4518
  23   1.0000      -0.382594       -10.4109
  24   1.0000      -0.379126       -10.3165
  25   1.0000      -0.377096       -10.2613
  26   1.0000      -0.363606        -9.8942
  27   1.0000      -0.273799        -7.4505
  28   1.0000      -0.153498        -4.1769
  29   0.0000      -0.070224        -1.9109
  30   0.0000      -0.010847        -0.2952
  31   0.0000       0.008247         0.2244
  32   0.0000       0.025432         0.6920
  33   0.0000       0.026364         0.7174

                 SPIN DOWN ORBITALS
  NO   OCC          E(Eh)            E(eV)
   0   1.0000      -3.989888      -108.5704
   1   1.0000      -3.989496      -108.5597
   2   1.0000      -3.967094      -107.9501
   3   1.0000      -2.528494       -68.8038
   4   1.0000      -2.524473       -68.6944
   5   1.0000      -2.523906       -68.6790
   6   1.0000      -2.523367       -68.6643
   7   1.0000      -2.522969       -68.6535
   8   1.0000      -2.522389       -68.6377
   9   1.0000      -2.502298       -68.0910
  10   1.0000      -2.501284       -68.0634
  11   1.0000      -2.499466       -68.0139
  12   1.0000      -0.454272       -12.3614
  13   1.0000      -0.440192       -11.9782
  14   1.0000      -0.434151       -11.8138
  15   1.0000      -0.430488       -11.7142
  16   1.0000      -0.418239       -11.3809
  17   1.0000      -0.417972       -11.3736
  18   1.0000      -0.412494       -11.2245
  19   1.0000      -0.399666       -10.8755
  20   1.0000      -0.396260       -10.7828
  21   1.0000      -0.391722       -10.6593
  22   1.0000      -0.381565       -10.3829
  23   1.0000      -0.380299       -10.3485
  24   1.0000      -0.376179       -10.2364
  25   1.0000      -0.373579       -10.1656
  26   1.0000      -0.359765        -9.7897
  27   1.0000      -0.257949        -7.0192
  28   0.0000      -0.063517        -1.7284
  29   0.0000      -0.042055        -1.1444
  30   0.0000      -0.006100        -0.1660
  31   0.0000       0.017236         0.4690
  32   0.0000       0.040648         1.1061

MULLIKEN ATOMIC CHARGES AND SPIN POPULATIONS
--------------------------------------------
   0 Ag:   -0.131699    0.591453
   1 Ag:    0.065840    0.204285
   2 Ag:    0.065859    0.204261
Sum of atomic charges         :   -0.0000000

LOEWDIN ATOMIC CHARGES AND SPIN POPULATIONS
-------------------------------------------
   0 Ag:   -0.085234    0.470750
   1 Ag:    0.042613    0.264631
   2 Ag:    0.042621    0.264618

  Mayer bond orders larger than 0.100000
B(  0-Ag,  1-Ag) :   0.4914 B(  0-Ag,  2-Ag) :   0.4914 B(  1-Ag,  2-Ag) :   0.7431

MP2 TOTAL ENERGY:     -440.742426458 Eh
Dispersion correction           -0.005944178
FINAL SINGLE POINT ENERGY      -440.748370636260

DIPOLE MOMENT
-------------
                                X             Y             Z
Electronic contribution:     -0.00002      -0.49261      -0.00000
Nuclear contribution   :      0.00000       0.00000       0.00000
                        -----------------------------------------
Total Dipole Moment    :     -0.00002      -0.49261      -0.00000
                        -----------------------------------------
Magnitude (a.u.)       :      0.49261
Magnitude (Debye)      :      1.25212

Rotational constants in cm-1:     0.044277     0.044277     0.022139
Rotational constants in MHz :  1327.402110  1327.401756   663.700966

                             ****ORCA TERMINATED NORMALLY****
TOTAL RUN TIME: 0 days 0 hours 0 minutes 8 seconds 554 msec
