                         Program Version 4.2.0 -  RELEASE  -
|  1> #
|  2> # Ag03N0_LIN ri-B2PLYP-D3BJ/Def2-TZVPPD
|  3> #
|  4> ! rijk ri-b2plyp d3bj def2-tzvppd def2/jk def2-tzvppd/c grid4 nofinalgrid
|  5>
|  6> *xyz 0 2
|  7> Ag       0.000000    0.000000    0.000000
|  8> Ag       0.000000    0.000000    2.592532
|  9> Ag       0.000000    0.000000   -2.592532
| 10> *
| 11>
| 12> %maxcore 5000
| 13>
| 14> %pal
| 15> nprocs = 24
| 16> end
| 17>
| 18>
| 19>                          ****END OF INPUT****

CARTESIAN COORDINATES (ANGSTROEM)
---------------------------------
  Ag     0.000000    0.000000    0.000000
  Ag     0.000000    0.000000    2.592532
  Ag     0.000000    0.000000   -2.592532

 Total Charge           Charge          ....    0
 Multiplicity           Mult            ....    2
 Number of Electrons    NEL             ....   57
 Basis Dimension        Dim             ....  168

ORBITAL ENERGIES
----------------
                 SPIN UP ORBITALS
  NO   OCC          E(Eh)            E(eV)
   0   1.0000      -3.981107      -108.3314
   1   1.0000      -3.981099      -108.3312
   2   1.0000      -3.966078      -107.9225
   3   1.0000      -2.518034       -68.5192
   4   1.0000      -2.516622       -68.4808
   5   1.0000      -2.513774       -68.4033
   6   1.0000      -2.513774       -68.4033
   7   1.0000      -2.513768       -68.4031
   8   1.0000      -2.513768       -68.4031
   9   1.0000      -2.502114       -68.0860
  10   1.0000      -2.498347       -67.9835
  11   1.0000      -2.498347       -67.9835
  12   1.0000      -0.449948       -12.2437
  13   1.0000      -0.425188       -11.5700
  14   1.0000      -0.425188       -11.5700
  15   1.0000      -0.408272       -11.1097
  16   1.0000      -0.406488       -11.0611
  17   1.0000      -0.406488       -11.0611
  18   1.0000      -0.403445       -10.9783
  19   1.0000      -0.403444       -10.9783
  20   1.0000      -0.402233       -10.9453
  21   1.0000      -0.402232       -10.9453
  22   1.0000      -0.382717       -10.4143
  23   1.0000      -0.382716       -10.4142
  24   1.0000      -0.368681       -10.0323
  25   1.0000      -0.368681       -10.0323
  26   1.0000      -0.358218        -9.7476
  27   1.0000      -0.248542        -6.7632
  28   1.0000      -0.206541        -5.6203
  29   0.0000      -0.038456        -1.0465
  30   0.0000      -0.003446        -0.0938
  31   0.0000      -0.003446        -0.0938
  32   0.0000       0.025067         0.6821
  33   0.0000       0.029497         0.8027

                 SPIN DOWN ORBITALS
  NO   OCC          E(Eh)            E(eV)
   0   1.0000      -3.979839      -108.2969
   1   1.0000      -3.979829      -108.2967
   2   1.0000      -3.966688      -107.9391
   3   1.0000      -2.518097       -68.5209
   4   1.0000      -2.516799       -68.4856
   5   1.0000      -2.514089       -68.4118
   6   1.0000      -2.514089       -68.4118
   7   1.0000      -2.514069       -68.4113
   8   1.0000      -2.514069       -68.4113
   9   1.0000      -2.501744       -68.0759
  10   1.0000      -2.499011       -68.0016
  11   1.0000      -2.499011       -68.0016
  12   1.0000      -0.446829       -12.1588
  13   1.0000      -0.422696       -11.5021
  14   1.0000      -0.422696       -11.5021
  15   1.0000      -0.406023       -11.0484
  16   1.0000      -0.403528       -10.9806
  17   1.0000      -0.403528       -10.9806
  18   1.0000      -0.400598       -10.9008
  19   1.0000      -0.400597       -10.9008
  20   1.0000      -0.399159       -10.8617
  21   1.0000      -0.399157       -10.8616
  22   1.0000      -0.383533       -10.4365
  23   1.0000      -0.383532       -10.4364
  24   1.0000      -0.368811       -10.0359
  25   1.0000      -0.368811       -10.0359
  26   1.0000      -0.356271        -9.6946
  27   1.0000      -0.220918        -6.0115
  28   0.0000      -0.092812        -2.5255
  29   0.0000      -0.021195        -0.5767
  30   0.0000       0.003382         0.0920
  31   0.0000       0.003382         0.0920
  32   0.0000       0.037895         1.0312

MULLIKEN ATOMIC CHARGES AND SPIN POPULATIONS
--------------------------------------------
   0 Ag:   -0.029629   -0.181920
   1 Ag:    0.014816    0.590958
   2 Ag:    0.014813    0.590962
Sum of atomic charges         :   -0.0000000

LOEWDIN ATOMIC CHARGES AND SPIN POPULATIONS
-------------------------------------------
   0 Ag:   -0.190899    0.272244
   1 Ag:    0.095450    0.363878
   2 Ag:    0.095450    0.363878

  Mayer bond orders larger than 0.100000
B(  0-Ag,  1-Ag) :   0.5710 B(  0-Ag,  2-Ag) :   0.5710 B(  1-Ag,  2-Ag) :   0.1314

MP2 TOTAL ENERGY:     -440.743821585 Eh
Dispersion correction           -0.004382749
FINAL SINGLE POINT ENERGY      -440.748204333963

DIPOLE MOMENT
-------------
                                X             Y             Z
Electronic contribution:      0.00000       0.00000      -0.00000
Nuclear contribution   :      0.00000       0.00000       0.00000
                        -----------------------------------------
Total Dipole Moment    :      0.00000       0.00000      -0.00000
                        -----------------------------------------
Magnitude (a.u.)       :      0.00000
Magnitude (Debye)      :      0.00000

Rotational constants in cm-1:     0.000000     0.011626     0.011626
Rotational constants in MHz :     0.000000   348.528806   348.528806

                             ****ORCA TERMINATED NORMALLY****
TOTAL RUN TIME: 0 days 0 hours 0 minutes 10 seconds 296 msec
