                         Program Version 4.2.0 -  RELEASE  -
|  1> #
|  2> # Ag03C1_LIN ri-B2PLYP-D3BJ/Def2-TZVPPD
|  3> #
|  4> ! rijk ri-b2plyp d3bj def2-tzvppd def2/jk def2-tzvppd/c grid4 nofinalgrid
|  5>
|  6> *xyz 1 1
|  7> Ag       0.000000    0.000000    0.000000
|  8> Ag       0.000000    0.000000    2.629319
|  9> Ag       0.000000    0.000000   -2.629319
| 10> *
| 11>
| 12> %maxcore 5000
| 13>
| 14> %pal
| 15> nprocs = 24
| 16> end
| 17>
| 18>
| 19>                          ****END OF INPUT****

CARTESIAN COORDINATES (ANGSTROEM)
---------------------------------
  Ag     0.000000    0.000000    0.000000
  Ag     0.000000    0.000000    2.629319
  Ag     0.000000    0.000000   -2.629319

 Total Charge           Charge          ....    1
 Multiplicity           Mult            ....    1
 Number of Electrons    NEL             ....   56
 Basis Dimension        Dim             ....  168

ORBITAL ENERGIES
----------------

  NO   OCC          E(Eh)            E(eV)
   0   2.0000      -4.179689      -113.7351
   1   2.0000      -4.179688      -113.7351
   2   2.0000      -4.137070      -112.5754
   3   2.0000      -2.717397       -73.9441
   4   2.0000      -2.717056       -73.9348
   5   2.0000      -2.714902       -73.8762
   6   2.0000      -2.714902       -73.8762
   7   2.0000      -2.714887       -73.8758
   8   2.0000      -2.714887       -73.8758
   9   2.0000      -2.675230       -72.7967
  10   2.0000      -2.668519       -72.6141
  11   2.0000      -2.668519       -72.6141
  12   2.0000      -0.636113       -17.3095
  13   2.0000      -0.614561       -16.7231
  14   2.0000      -0.614561       -16.7231
  15   2.0000      -0.607063       -16.5190
  16   2.0000      -0.604823       -16.4581
  17   2.0000      -0.604823       -16.4581
  18   2.0000      -0.601673       -16.3724
  19   2.0000      -0.601673       -16.3723
  20   2.0000      -0.601316       -16.3626
  21   2.0000      -0.601315       -16.3626
  22   2.0000      -0.552975       -15.0472
  23   2.0000      -0.552975       -15.0472
  24   2.0000      -0.550524       -14.9805
  25   2.0000      -0.550524       -14.9805
  26   2.0000      -0.542202       -14.7541
  27   2.0000      -0.395299       -10.7566
  28   0.0000      -0.274992        -7.4829
  29   0.0000      -0.181457        -4.9377
  30   0.0000      -0.146582        -3.9887
  31   0.0000      -0.146582        -3.9887
  32   0.0000      -0.113541        -3.0896

MULLIKEN ATOMIC CHARGES
-----------------------
   0 Ag:   -0.075790
   1 Ag:    0.537893
   2 Ag:    0.537897
Sum of atomic charges:    1.0000000

LOEWDIN ATOMIC CHARGES
----------------------
   0 Ag:    0.124751
   1 Ag:    0.437624
   2 Ag:    0.437625

  Mayer bond orders larger than 0.100000
B(  0-Ag,  1-Ag) :   0.5511 B(  0-Ag,  2-Ag) :   0.5511 B(  1-Ag,  2-Ag) :   0.2334

MP2 TOTAL ENERGY:     -440.490988518 Eh
Dispersion correction           -0.004343756
FINAL SINGLE POINT ENERGY      -440.495332273966

DIPOLE MOMENT
-------------
                                X             Y             Z
Electronic contribution:      0.00000      -0.00000      -0.00000
Nuclear contribution   :      0.00000       0.00000       0.00000
                        -----------------------------------------
Total Dipole Moment    :      0.00000      -0.00000      -0.00000
                        -----------------------------------------
Magnitude (a.u.)       :      0.00000
Magnitude (Debye)      :      0.00000

Rotational constants in cm-1:     0.000000     0.011303     0.011303
Rotational constants in MHz :     0.000000   338.844445   338.844445

                             ****ORCA TERMINATED NORMALLY****
TOTAL RUN TIME: 0 days 0 hours 0 minutes 7 seconds 183 msec
