                         Program Version 4.2.0 -  RELEASE  -
|  1> #
|  2> # Ag03C1_D3H ri-B2PLYP-D3BJ/Def2-TZVPPD
|  3> #
|  4> ! rijk ri-b2plyp d3bj def2-tzvppd def2/jk def2-tzvppd/c grid4 nofinalgrid
|  5>
|  6> *xyz 1 1
|  7> Ag       0.000000    1.529877    0.000000
|  8> Ag       1.324912   -0.764938    0.000000
|  9> Ag      -1.324912   -0.764938    0.000000
| 10> *
| 11>
| 12> %maxcore 5000
| 13>
| 14> %pal
| 15> nprocs = 24
| 16> end
| 17>
| 18>
| 19>                          ****END OF INPUT****

CARTESIAN COORDINATES (ANGSTROEM)
---------------------------------
  Ag     0.000000    1.529877    0.000000
  Ag     1.324912   -0.764938    0.000000
  Ag    -1.324912   -0.764938    0.000000

 Total Charge           Charge          ....    1
 Multiplicity           Mult            ....    1
 Number of Electrons    NEL             ....   56
 Basis Dimension        Dim             ....  168

ORBITAL ENERGIES
----------------

  NO   OCC          E(Eh)            E(eV)
   0   2.0000      -4.173385      -113.5636
   1   2.0000      -4.172778      -113.5471
   2   2.0000      -4.172776      -113.5470
   3   2.0000      -2.713125       -73.8279
   4   2.0000      -2.710013       -73.7432
   5   2.0000      -2.710010       -73.7431
   6   2.0000      -2.706493       -73.6474
   7   2.0000      -2.706383       -73.6444
   8   2.0000      -2.706127       -73.6374
   9   2.0000      -2.706122       -73.6373
  10   2.0000      -2.705764       -73.6276
  11   2.0000      -2.705762       -73.6275
  12   2.0000      -0.643823       -17.5193
  13   2.0000      -0.626917       -17.0593
  14   2.0000      -0.626915       -17.0592
  15   2.0000      -0.621910       -16.9230
  16   2.0000      -0.607368       -16.5273
  17   2.0000      -0.604218       -16.4416
  18   2.0000      -0.604212       -16.4415
  19   2.0000      -0.584131       -15.8950
  20   2.0000      -0.584130       -15.8950
  21   2.0000      -0.580895       -15.8070
  22   2.0000      -0.576970       -15.7002
  23   2.0000      -0.576956       -15.6998
  24   2.0000      -0.574831       -15.6419
  25   2.0000      -0.574822       -15.6417
  26   2.0000      -0.554636       -15.0924
  27   2.0000      -0.441775       -12.0213
  28   0.0000      -0.222271        -6.0483
  29   0.0000      -0.222269        -6.0483
  30   0.0000      -0.162422        -4.4197
  31   0.0000      -0.129420        -3.5217
  32   0.0000      -0.114321        -3.1108

MULLIKEN ATOMIC CHARGES
-----------------------
   0 Ag:    0.333330
   1 Ag:    0.333336
   2 Ag:    0.333334
Sum of atomic charges:    1.0000000

LOEWDIN ATOMIC CHARGES
----------------------
   0 Ag:    0.333332
   1 Ag:    0.333334
   2 Ag:    0.333334

  Mayer bond orders larger than 0.100000
B(  0-Ag,  1-Ag) :   0.5142 B(  0-Ag,  2-Ag) :   0.5142 B(  1-Ag,  2-Ag) :   0.5141

MP2 TOTAL ENERGY:     -440.538868187 Eh
Dispersion correction           -0.005948097
FINAL SINGLE POINT ENERGY      -440.544816283505

DIPOLE MOMENT
-------------
                                X             Y             Z
Electronic contribution:     -0.00000      -0.00001      -0.00000
Nuclear contribution   :      0.00000       0.00000       0.00000
                        -----------------------------------------
Total Dipole Moment    :     -0.00000      -0.00001      -0.00000
                        -----------------------------------------
Magnitude (a.u.)       :      0.00001
Magnitude (Debye)      :      0.00003

Rotational constants in cm-1:     0.044514     0.044514     0.022257
Rotational constants in MHz :  1334.482437  1334.482320   667.241189

                             ****ORCA TERMINATED NORMALLY****
TOTAL RUN TIME: 0 days 0 hours 0 minutes 7 seconds 152 msec
