                         Program Version 4.2.0 -  RELEASE  -
|  1> #
|  2> # Ag04C2 ri-B2PLYP-D3BJ/Def2-TZVPPD
|  3> #
|  4> ! rijk ri-b2plyp d3bj def2-tzvppd def2/jk def2-tzvppd/c grid4 nofinalgrid
|  5>
|  6> *xyz 2 1
|  7> Ag      -0.000000   -0.000016    1.715553
|  8> Ag       0.000000   -1.617524   -0.571836
|  9> Ag       1.400774    0.808769   -0.571859
| 10> Ag      -1.400774    0.808770   -0.571858
| 11> *
| 12>
| 13> %maxcore 5000
| 14>
| 15> %pal
| 16> nprocs = 24
| 17> end
| 18>
| 19>
| 20>                          ****END OF INPUT****

CARTESIAN COORDINATES (ANGSTROEM)
---------------------------------
  Ag    -0.000000   -0.000016    1.715553
  Ag     0.000000   -1.617524   -0.571836
  Ag     1.400774    0.808769   -0.571859
  Ag    -1.400774    0.808770   -0.571858

 Total Charge           Charge          ....    2
 Multiplicity           Mult            ....    1
 Number of Electrons    NEL             ....   74
 Basis Dimension        Dim             ....  224

ORBITAL ENERGIES
----------------

  NO   OCC          E(Eh)            E(eV)
   0   2.0000      -4.354380      -118.4887
   1   2.0000      -4.353998      -118.4783
   2   2.0000      -4.353997      -118.4783
   3   2.0000      -4.353996      -118.4783
   4   2.0000      -2.892930       -78.7206
   5   2.0000      -2.890432       -78.6527
   6   2.0000      -2.890432       -78.6527
   7   2.0000      -2.890431       -78.6526
   8   2.0000      -2.889510       -78.6276
   9   2.0000      -2.889509       -78.6275
  10   2.0000      -2.887949       -78.5851
  11   2.0000      -2.887948       -78.5851
  12   2.0000      -2.887948       -78.5851
  13   2.0000      -2.887851       -78.5824
  14   2.0000      -2.887851       -78.5824
  15   2.0000      -2.887850       -78.5824
  16   2.0000      -0.827337       -22.5130
  17   2.0000      -0.805665       -21.9233
  18   2.0000      -0.805658       -21.9231
  19   2.0000      -0.805653       -21.9229
  20   2.0000      -0.799499       -21.7555
  21   2.0000      -0.799493       -21.7553
  22   2.0000      -0.785594       -21.3771
  23   2.0000      -0.785593       -21.3771
  24   2.0000      -0.785586       -21.3769
  25   2.0000      -0.766159       -20.8482
  26   2.0000      -0.766152       -20.8481
  27   2.0000      -0.766151       -20.8480
  28   2.0000      -0.763937       -20.7878
  29   2.0000      -0.763931       -20.7876
  30   2.0000      -0.761778       -20.7290
  31   2.0000      -0.761771       -20.7288
  32   2.0000      -0.761761       -20.7286
  33   2.0000      -0.743031       -20.2189
  34   2.0000      -0.743030       -20.2189
  35   2.0000      -0.743024       -20.2187
  36   2.0000      -0.643893       -17.5212
  37   0.0000      -0.389486       -10.5985
  38   0.0000      -0.389480       -10.5983
  39   0.0000      -0.389480       -10.5983
  40   0.0000      -0.283358        -7.7106
  41   0.0000      -0.269154        -7.3241

MULLIKEN ATOMIC CHARGES
-----------------------
   0 Ag:    0.500022
   1 Ag:    0.499995
   2 Ag:    0.499992
   3 Ag:    0.499991
Sum of atomic charges:    2.0000000

LOEWDIN ATOMIC CHARGES
----------------------
   0 Ag:    0.499993
   1 Ag:    0.500008
   2 Ag:    0.500000
   3 Ag:    0.500000

  Mayer bond orders larger than 0.100000
B(  0-Ag,  1-Ag) :   0.3250 B(  0-Ag,  2-Ag) :   0.3249 B(  0-Ag,  3-Ag) :   0.3249
B(  1-Ag,  2-Ag) :   0.3249 B(  1-Ag,  3-Ag) :   0.3249 B(  2-Ag,  3-Ag) :   0.3249

MP2 TOTAL ENERGY:     -587.073894782 Eh
Dispersion correction           -0.011699978
FINAL SINGLE POINT ENERGY      -587.085594760425

DIPOLE MOMENT
-------------
                                X             Y             Z
Electronic contribution:     -0.00000      -0.00002      -0.00004
Nuclear contribution   :      0.00000      -0.00000       0.00000
                        -----------------------------------------
Total Dipole Moment    :     -0.00000      -0.00002      -0.00004
                        -----------------------------------------
Magnitude (a.u.)       :      0.00004
Magnitude (Debye)      :      0.00011

Rotational constants in cm-1:     0.019912     0.019911     0.019911
Rotational constants in MHz :   596.940436   596.919431   596.905399

                             ****ORCA TERMINATED NORMALLY****
TOTAL RUN TIME: 0 days 0 hours 0 minutes 10 seconds 266 msec
