                         Program Version 4.2.0 -  RELEASE  -
|  1> #
|  2> # Ag04C2_NH3_A ri-B2PLYP-D3BJ/Def2-TZVPPD
|  3> #
|  4> ! rijk ri-b2plyp d3bj def2-tzvppd def2/jk def2-tzvppd/c grid4 nofinalgrid
|  5>
|  6> *xyz 2 1
|  7> Ag      -0.268639    1.507918    0.000000
|  8> Ag       1.705052   -0.492854   -0.000000
|  9> Ag      -0.647170   -0.911099    1.379441
| 10> Ag      -0.647170   -0.911099   -1.379441
| 11> N       -0.647170    3.675657    0.000000
| 12> H       -0.250844    4.149729    0.817426
| 13> H       -0.250844    4.149729   -0.817426
| 14> H       -1.645581    3.906275    0.000000
| 15> *
| 16>
| 17> %maxcore 5000
| 18>
| 19> %pal
| 20> nprocs = 24
| 21> end
| 22>
| 23>
| 24>                          ****END OF INPUT****

CARTESIAN COORDINATES (ANGSTROEM)
---------------------------------
  Ag    -0.268639    1.507918    0.000000
  Ag     1.705052   -0.492854   -0.000000
  Ag    -0.647170   -0.911099    1.379441
  Ag    -0.647170   -0.911099   -1.379441
  N     -0.647170    3.675657    0.000000
  H     -0.250844    4.149729    0.817426
  H     -0.250844    4.149729   -0.817426
  H     -1.645581    3.906275    0.000000

 Total Charge           Charge          ....    2
 Multiplicity           Mult            ....    1
 Number of Electrons    NEL             ....   84
 Basis Dimension        Dim             ....  312

ORBITAL ENERGIES
----------------

  NO   OCC          E(Eh)            E(eV)
   0   2.0000     -15.150410      -412.2636
   1   2.0000      -4.326750      -117.7368
   2   2.0000      -4.326396      -117.7272
   3   2.0000      -4.326391      -117.7271
   4   2.0000      -4.309471      -117.2667
   5   2.0000      -2.864930       -77.9587
   6   2.0000      -2.862646       -77.8965
   7   2.0000      -2.862642       -77.8964
   8   2.0000      -2.861353       -77.8614
   9   2.0000      -2.861010       -77.8520
  10   2.0000      -2.861007       -77.8520
  11   2.0000      -2.860185       -77.8296
  12   2.0000      -2.860015       -77.8250
  13   2.0000      -2.860011       -77.8249
  14   2.0000      -2.843532       -77.3764
  15   2.0000      -2.843284       -77.3697
  16   2.0000      -2.843284       -77.3697
  17   2.0000      -1.293694       -35.2032
  18   2.0000      -0.848656       -23.0931
  19   2.0000      -0.848651       -23.0930
  20   2.0000      -0.803808       -21.8727
  21   2.0000      -0.782145       -21.2832
  22   2.0000      -0.775819       -21.1111
  23   2.0000      -0.775803       -21.1107
  24   2.0000      -0.766181       -20.8489
  25   2.0000      -0.766180       -20.8488
  26   2.0000      -0.759296       -20.6615
  27   2.0000      -0.755144       -20.5485
  28   2.0000      -0.752138       -20.4667
  29   2.0000      -0.752137       -20.4667
  30   2.0000      -0.737618       -20.0716
  31   2.0000      -0.736016       -20.0280
  32   2.0000      -0.736003       -20.0277
  33   2.0000      -0.733149       -19.9500
  34   2.0000      -0.733145       -19.9499
  35   2.0000      -0.724004       -19.7012
  36   2.0000      -0.724001       -19.7011
  37   2.0000      -0.713368       -19.4117
  38   2.0000      -0.704753       -19.1773
  39   2.0000      -0.704744       -19.1771
  40   2.0000      -0.655536       -17.8380
  41   2.0000      -0.614195       -16.7131
  42   0.0000      -0.365058        -9.9337
  43   0.0000      -0.365053        -9.9336
  44   0.0000      -0.338023        -9.1981
  45   0.0000      -0.259190        -7.0529
  46   0.0000      -0.246966        -6.7203

MULLIKEN ATOMIC CHARGES
-----------------------
   0 Ag:    0.414240
   1 Ag:    0.403904
   2 Ag:    0.403342
   3 Ag:    0.403336
   4 N :   -0.309622
   5 H :    0.228163
   6 H :    0.228161
   7 H :    0.228476
Sum of atomic charges:    2.0000000

LOEWDIN ATOMIC CHARGES
----------------------
   0 Ag:    0.418256
   1 Ag:    0.476350
   2 Ag:    0.476345
   3 Ag:    0.476345
   4 N :    0.398182
   5 H :   -0.081836
   6 H :   -0.081836
   7 H :   -0.081805

  Mayer bond orders larger than 0.100000
B(  0-Ag,  1-Ag) :   0.2347 B(  0-Ag,  2-Ag) :   0.2349 B(  0-Ag,  3-Ag) :   0.2349
B(  0-Ag,  4-N ) :   0.4204 B(  1-Ag,  2-Ag) :   0.4178 B(  1-Ag,  3-Ag) :   0.4178
B(  2-Ag,  3-Ag) :   0.4182 B(  4-N ,  5-H ) :   0.9855 B(  4-N ,  6-H ) :   0.9855
B(  4-N ,  7-H ) :   0.9852

MP2 TOTAL ENERGY:     -643.691067964 Eh
Dispersion correction           -0.014410502
FINAL SINGLE POINT ENERGY      -643.705478466296

DIPOLE MOMENT
-------------
                                X             Y             Z
Electronic contribution:      8.70599     -49.45296      -0.00000
Nuclear contribution   :     -9.00166      51.14183       0.00000
                        -----------------------------------------
Total Dipole Moment    :     -0.29567       1.68888      -0.00000
                        -----------------------------------------
Magnitude (a.u.)       :      1.71457
Magnitude (Debye)      :      4.35808

Rotational constants in cm-1:     0.020466     0.015199     0.015198
Rotational constants in MHz :   613.555994   455.656791   455.636329

                             ****ORCA TERMINATED NORMALLY****
TOTAL RUN TIME: 0 days 0 hours 0 minutes 16 seconds 210 msec
