                         Program Version 4.2.0 -  RELEASE  -
|  1> #
|  2> # Ag04C2_NH3_F ri-B2PLYP-D3BJ/Def2-TZVPPD
|  3> #
|  4> ! rijk ri-b2plyp d3bj def2-tzvppd def2/jk def2-tzvppd/c grid4 nofinalgrid
|  5>
|  6> *xyz 2 1
|  7> Ag       0.000000    1.593354   -0.403942
|  8> Ag       1.379885   -0.796677   -0.403942
|  9> Ag      -1.379885   -0.796677   -0.403942
| 10> Ag       0.000000    0.000000    1.894943
| 11> N        0.000000    0.000000   -3.082630
| 12> H        0.808649    0.466874   -3.509356
| 13> H       -0.000000   -0.933748   -3.509356
| 14> H       -0.808649    0.466874   -3.509356
| 15> *
| 16>
| 17> %maxcore 5000
| 18>
| 19> %pal
| 20> nprocs = 24
| 21> end
| 22>
| 23>
| 24>                          ****END OF INPUT****

CARTESIAN COORDINATES (ANGSTROEM)
---------------------------------
  Ag     0.000000    1.593354   -0.403942
  Ag     1.379885   -0.796677   -0.403942
  Ag    -1.379885   -0.796677   -0.403942
  Ag     0.000000    0.000000    1.894943
  N      0.000000    0.000000   -3.082630
  H      0.808649    0.466874   -3.509356
  H     -0.000000   -0.933748   -3.509356
  H     -0.808649    0.466874   -3.509356

 Total Charge           Charge          ....    2
 Multiplicity           Mult            ....    1
 Number of Electrons    NEL             ....   84
 Basis Dimension        Dim             ....  312

ORBITAL ENERGIES
----------------

  NO   OCC          E(Eh)            E(eV)
   0   2.0000     -15.129824      -411.7034
   1   2.0000      -4.330827      -117.8478
   2   2.0000      -4.330468      -117.8380
   3   2.0000      -4.330467      -117.8380
   4   2.0000      -4.324055      -117.6635
   5   2.0000      -2.869511       -78.0834
   6   2.0000      -2.867272       -78.0224
   7   2.0000      -2.867271       -78.0224
   8   2.0000      -2.865409       -77.9717
   9   2.0000      -2.865359       -77.9704
  10   2.0000      -2.865357       -77.9703
  11   2.0000      -2.864873       -77.9572
  12   2.0000      -2.864089       -77.9358
  13   2.0000      -2.864089       -77.9358
  14   2.0000      -2.859281       -77.8050
  15   2.0000      -2.858253       -77.7770
  16   2.0000      -2.858253       -77.7770
  17   2.0000      -1.276840       -34.7446
  18   2.0000      -0.828818       -22.5533
  19   2.0000      -0.828818       -22.5533
  20   2.0000      -0.805224       -21.9113
  21   2.0000      -0.785666       -21.3791
  22   2.0000      -0.782364       -21.2892
  23   2.0000      -0.782355       -21.2890
  24   2.0000      -0.775099       -21.0915
  25   2.0000      -0.775098       -21.0915
  26   2.0000      -0.765080       -20.8189
  27   2.0000      -0.759418       -20.6648
  28   2.0000      -0.759415       -20.6647
  29   2.0000      -0.742104       -20.1937
  30   2.0000      -0.741207       -20.1693
  31   2.0000      -0.741200       -20.1691
  32   2.0000      -0.738119       -20.0852
  33   2.0000      -0.738112       -20.0850
  34   2.0000      -0.736718       -20.0471
  35   2.0000      -0.736718       -20.0471
  36   2.0000      -0.734901       -19.9977
  37   2.0000      -0.718357       -19.5475
  38   2.0000      -0.716387       -19.4939
  39   2.0000      -0.716380       -19.4937
  40   2.0000      -0.678161       -18.4537
  41   2.0000      -0.599042       -16.3008
  42   0.0000      -0.369782       -10.0623
  43   0.0000      -0.369780       -10.0622
  44   0.0000      -0.353615        -9.6223
  45   0.0000      -0.269953        -7.3458
  46   0.0000      -0.254588        -6.9277

MULLIKEN ATOMIC CHARGES
-----------------------
   0 Ag:    0.469587
   1 Ag:    0.469536
   2 Ag:    0.469515
   3 Ag:    0.452283
   4 N :   -0.439336
   5 H :    0.192896
   6 H :    0.192622
   7 H :    0.192897
Sum of atomic charges:    2.0000000

LOEWDIN ATOMIC CHARGES
----------------------
   0 Ag:    0.485839
   1 Ag:    0.485831
   2 Ag:    0.485830
   3 Ag:    0.470791
   4 N :    0.394390
   5 H :   -0.107558
   6 H :   -0.107565
   7 H :   -0.107558

  Mayer bond orders larger than 0.100000
B(  0-Ag,  1-Ag) :   0.3222 B(  0-Ag,  2-Ag) :   0.3222 B(  0-Ag,  3-Ag) :   0.3363
B(  1-Ag,  2-Ag) :   0.3222 B(  1-Ag,  3-Ag) :   0.3363 B(  2-Ag,  3-Ag) :   0.3364
B(  4-N ,  5-H ) :   1.0092 B(  4-N ,  6-H ) :   1.0095 B(  4-N ,  7-H ) :   1.0092

MP2 TOTAL ENERGY:     -643.648986301 Eh
Dispersion correction           -0.015707822
FINAL SINGLE POINT ENERGY      -643.664694122946

DIPOLE MOMENT
-------------
                                X             Y             Z
Electronic contribution:      0.00000       0.00002      41.85262
Nuclear contribution   :      0.00000       0.00000     -43.35494
                        -----------------------------------------
Total Dipole Moment    :      0.00000       0.00002      -1.50231
                        -----------------------------------------
Magnitude (a.u.)       :      1.50231
Magnitude (Debye)      :      3.81857

Rotational constants in cm-1:     0.020453     0.016499     0.016499
Rotational constants in MHz :   613.168216   494.640125   494.640113

                             ****ORCA TERMINATED NORMALLY****
TOTAL RUN TIME: 0 days 0 hours 0 minutes 16 seconds 101 msec
