                         Program Version 4.2.0 -  RELEASE  -
|  1> #
|  2> # Ag04C2_H_E ri-B2PLYP-D3BJ/Def2-TZVPPD
|  3> #
|  4> ! rijk ri-b2plyp d3bj def2-tzvppd def2/jk def2-tzvppd/c grid4 nofinalgrid
|  5>
|  6> *xyz 2 2
|  7> Ag      -0.000000    1.374598    1.108828
|  8> Ag      -0.000000   -1.374598    1.108828
|  9> Ag      -1.374988    0.000000   -1.132689
| 10> Ag       1.374988   -0.000000   -1.132689
| 11> H        0.000000    0.000000    2.242952
| 12> *
| 13>
| 14> %maxcore 5000
| 15>
| 16> %pal
| 17> nprocs = 24
| 18> end
| 19>
| 20>
| 21>                          ****END OF INPUT****

CARTESIAN COORDINATES (ANGSTROEM)
---------------------------------
  Ag    -0.000000    1.374598    1.108828
  Ag    -0.000000   -1.374598    1.108828
  Ag    -1.374988    0.000000   -1.132689
  Ag     1.374988   -0.000000   -1.132689
  H      0.000000    0.000000    2.242952

 Total Charge           Charge          ....    2
 Multiplicity           Mult            ....    2
 Number of Electrons    NEL             ....   75
 Basis Dimension        Dim             ....  241

ORBITAL ENERGIES
----------------
                 SPIN UP ORBITALS
  NO   OCC          E(Eh)            E(eV)
   0   1.0000      -4.366350      -118.8144
   1   1.0000      -4.366099      -118.8076
   2   1.0000      -4.355824      -118.5280
   3   1.0000      -4.355575      -118.5212
   4   1.0000      -2.906133       -79.0799
   5   1.0000      -2.903737       -79.0147
   6   1.0000      -2.901361       -78.9500
   7   1.0000      -2.899866       -78.9094
   8   1.0000      -2.897756       -78.8519
   9   1.0000      -2.897437       -78.8433
  10   1.0000      -2.893473       -78.7354
  11   1.0000      -2.890207       -78.6465
  12   1.0000      -2.890194       -78.6462
  13   1.0000      -2.890035       -78.6418
  14   1.0000      -2.889787       -78.6351
  15   1.0000      -2.889693       -78.6326
  16   1.0000      -0.872446       -23.7405
  17   1.0000      -0.825346       -22.4588
  18   1.0000      -0.809188       -22.0191
  19   1.0000      -0.806808       -21.9544
  20   1.0000      -0.806025       -21.9331
  21   1.0000      -0.801203       -21.8018
  22   1.0000      -0.796079       -21.6624
  23   1.0000      -0.791984       -21.5510
  24   1.0000      -0.787974       -21.4419
  25   1.0000      -0.777792       -21.1648
  26   1.0000      -0.777747       -21.1636
  27   1.0000      -0.773805       -21.0563
  28   1.0000      -0.772106       -21.0101
  29   1.0000      -0.771791       -21.0015
  30   1.0000      -0.771225       -20.9861
  31   1.0000      -0.765548       -20.8316
  32   1.0000      -0.763183       -20.7673
  33   1.0000      -0.756544       -20.5866
  34   1.0000      -0.755424       -20.5561
  35   1.0000      -0.749072       -20.3833
  36   1.0000      -0.704583       -19.1727
  37   1.0000      -0.592366       -16.1191
  38   0.0000      -0.393307       -10.7024
  39   0.0000      -0.391615       -10.6564
  40   0.0000      -0.342082        -9.3085
  41   0.0000      -0.287295        -7.8177
  42   0.0000      -0.283342        -7.7101

                 SPIN DOWN ORBITALS
  NO   OCC          E(Eh)            E(eV)
   0   1.0000      -4.361921      -118.6939
   1   1.0000      -4.361678      -118.6873
   2   1.0000      -4.355097      -118.5082
   3   1.0000      -4.354850      -118.5015
   4   1.0000      -2.898293       -78.8666
   5   1.0000      -2.896221       -78.8102
   6   1.0000      -2.895890       -78.8012
   7   1.0000      -2.895649       -78.7946
   8   1.0000      -2.895341       -78.7862
   9   1.0000      -2.894638       -78.7671
  10   1.0000      -2.892489       -78.7086
  11   1.0000      -2.890780       -78.6621
  12   1.0000      -2.890665       -78.6590
  13   1.0000      -2.890450       -78.6531
  14   1.0000      -2.890324       -78.6497
  15   1.0000      -2.889076       -78.6157
  16   1.0000      -0.839378       -22.8406
  17   1.0000      -0.822340       -22.3770
  18   1.0000      -0.805849       -21.9283
  19   1.0000      -0.805187       -21.9103
  20   1.0000      -0.802073       -21.8255
  21   1.0000      -0.797526       -21.7018
  22   1.0000      -0.794232       -21.6122
  23   1.0000      -0.789642       -21.4873
  24   1.0000      -0.783479       -21.3195
  25   1.0000      -0.774670       -21.0798
  26   1.0000      -0.773379       -21.0447
  27   1.0000      -0.771109       -20.9829
  28   1.0000      -0.770784       -20.9741
  29   1.0000      -0.770237       -20.9592
  30   1.0000      -0.764982       -20.8162
  31   1.0000      -0.763937       -20.7878
  32   1.0000      -0.762795       -20.7567
  33   1.0000      -0.754497       -20.5309
  34   1.0000      -0.747387       -20.3374
  35   1.0000      -0.745978       -20.2991
  36   1.0000      -0.669227       -18.2106
  37   0.0000      -0.450536       -12.2597
  38   0.0000      -0.386638       -10.5210
  39   0.0000      -0.382930       -10.4200
  40   0.0000      -0.318125        -8.6566
  41   0.0000      -0.283469        -7.7136

MULLIKEN ATOMIC CHARGES AND SPIN POPULATIONS
--------------------------------------------
   0 Ag:    0.460295    0.040625
   1 Ag:    0.460292    0.040623
   2 Ag:    0.507258    0.275791
   3 Ag:    0.507257    0.275792
   4 H :    0.064898    0.367169
Sum of atomic charges         :    2.0000000

LOEWDIN ATOMIC CHARGES AND SPIN POPULATIONS
-------------------------------------------
   0 Ag:    0.533227    0.192924
   1 Ag:    0.533227    0.192924
   2 Ag:    0.527747    0.192206
   3 Ag:    0.527747    0.192206
   4 H :   -0.121948    0.229739

  Mayer bond orders larger than 0.100000
B(  0-Ag,  1-Ag) :   0.3877 B(  0-Ag,  2-Ag) :   0.2204 B(  0-Ag,  3-Ag) :   0.2204
B(  0-Ag,  4-H ) :   0.4027 B(  1-Ag,  2-Ag) :   0.2204 B(  1-Ag,  3-Ag) :   0.2204
B(  1-Ag,  4-H ) :   0.4027 B(  2-Ag,  3-Ag) :   0.3963

MP2 TOTAL ENERGY:     -587.608030781 Eh
Dispersion correction           -0.012590568
FINAL SINGLE POINT ENERGY      -587.620621349339

DIPOLE MOMENT
-------------
                                X             Y             Z
Electronic contribution:     -0.00000       0.00000      -3.85561
Nuclear contribution   :      0.00000       0.00000       3.49639
                        -----------------------------------------
Total Dipole Moment    :     -0.00000       0.00000      -0.35921
                        -----------------------------------------
Magnitude (a.u.)       :      0.35921
Magnitude (Debye)      :      0.91304

Rotational constants in cm-1:     0.020671     0.017657     0.017653
Rotational constants in MHz :   619.701148   529.337252   529.209018

                             ****ORCA TERMINATED NORMALLY****
TOTAL RUN TIME: 0 days 0 hours 0 minutes 15 seconds 301 msec
