                         Program Version 4.2.0 -  RELEASE  -
|  1> #
|  2> # Ag04C2_H_A ri-B2PLYP-D3BJ/Def2-TZVPPD
|  3> #
|  4> ! rijk ri-b2plyp d3bj def2-tzvppd def2/jk def2-tzvppd/c grid4 nofinalgrid
|  5>
|  6> *xyz 2 2
|  7> Ag       0.000000    0.000000    1.733523
|  8> Ag       0.000000    1.616553   -0.602470
|  9> Ag      -1.399976   -0.808277   -0.602470
| 10> Ag       1.399976   -0.808277   -0.602470
| 11> H        0.000000    0.000000    3.472645
| 12> *
| 13>
| 14> %maxcore 5000
| 15>
| 16> %pal
| 17> nprocs = 24
| 18> end
| 19>
| 20>
| 21>                          ****END OF INPUT****

CARTESIAN COORDINATES (ANGSTROEM)
---------------------------------
  Ag     0.000000    0.000000    1.733523
  Ag     0.000000    1.616553   -0.602470
  Ag    -1.399976   -0.808277   -0.602470
  Ag     1.399976   -0.808277   -0.602470
  H      0.000000    0.000000    3.472645

 Total Charge           Charge          ....    2
 Multiplicity           Mult            ....    2
 Number of Electrons    NEL             ....   75
 Basis Dimension        Dim             ....  241

ORBITAL ENERGIES
----------------
                 SPIN UP ORBITALS
  NO   OCC          E(Eh)            E(eV)
   0   1.0000      -4.368027      -118.8601
   1   1.0000      -4.352213      -118.4297
   2   1.0000      -4.351925      -118.4219
   3   1.0000      -4.351924      -118.4219
   4   1.0000      -2.908597       -79.1470
   5   1.0000      -2.898394       -78.8693
   6   1.0000      -2.898394       -78.8693
   7   1.0000      -2.890012       -78.6412
   8   1.0000      -2.887984       -78.5860
   9   1.0000      -2.887983       -78.5860
  10   1.0000      -2.886839       -78.5549
  11   1.0000      -2.886668       -78.5502
  12   1.0000      -2.886665       -78.5501
  13   1.0000      -2.885772       -78.5258
  14   1.0000      -2.885772       -78.5258
  15   1.0000      -2.885743       -78.5251
  16   1.0000      -0.860541       -23.4165
  17   1.0000      -0.809871       -22.0377
  18   1.0000      -0.807925       -21.9848
  19   1.0000      -0.807915       -21.9845
  20   1.0000      -0.799372       -21.7520
  21   1.0000      -0.799368       -21.7519
  22   1.0000      -0.794547       -21.6207
  23   1.0000      -0.787069       -21.4172
  24   1.0000      -0.787064       -21.4171
  25   1.0000      -0.783607       -21.3230
  26   1.0000      -0.770029       -20.9535
  27   1.0000      -0.770026       -20.9535
  28   1.0000      -0.763980       -20.7890
  29   1.0000      -0.762735       -20.7551
  30   1.0000      -0.762728       -20.7549
  31   1.0000      -0.759777       -20.6746
  32   1.0000      -0.759765       -20.6743
  33   1.0000      -0.747082       -20.3291
  34   1.0000      -0.747080       -20.3291
  35   1.0000      -0.740616       -20.1532
  36   1.0000      -0.695549       -18.9268
  37   1.0000      -0.639691       -17.4069
  38   0.0000      -0.388651       -10.5757
  39   0.0000      -0.388648       -10.5757
  40   0.0000      -0.358933        -9.7671
  41   0.0000      -0.277421        -7.5490
  42   0.0000      -0.270619        -7.3639

                 SPIN DOWN ORBITALS
  NO   OCC          E(Eh)            E(eV)
   0   1.0000      -4.363439      -118.7352
   1   1.0000      -4.352087      -118.4263
   2   1.0000      -4.351800      -118.4185
   3   1.0000      -4.351799      -118.4185
   4   1.0000      -2.897650       -78.8491
   5   1.0000      -2.897373       -78.8415
   6   1.0000      -2.897373       -78.8415
   7   1.0000      -2.889623       -78.6306
   8   1.0000      -2.887918       -78.5842
   9   1.0000      -2.887917       -78.5842
  10   1.0000      -2.886765       -78.5529
  11   1.0000      -2.886711       -78.5514
  12   1.0000      -2.886709       -78.5513
  13   1.0000      -2.885836       -78.5276
  14   1.0000      -2.885599       -78.5211
  15   1.0000      -2.885599       -78.5211
  16   1.0000      -0.828398       -22.5418
  17   1.0000      -0.806759       -21.9530
  18   1.0000      -0.806749       -21.9528
  19   1.0000      -0.804678       -21.8964
  20   1.0000      -0.798511       -21.7286
  21   1.0000      -0.798507       -21.7285
  22   1.0000      -0.785322       -21.3697
  23   1.0000      -0.785317       -21.3696
  24   1.0000      -0.783220       -21.3125
  25   1.0000      -0.773314       -21.0429
  26   1.0000      -0.768408       -20.9094
  27   1.0000      -0.768405       -20.9094
  28   1.0000      -0.763838       -20.7851
  29   1.0000      -0.762578       -20.7508
  30   1.0000      -0.762571       -20.7506
  31   1.0000      -0.759517       -20.6675
  32   1.0000      -0.759504       -20.6672
  33   1.0000      -0.745919       -20.2975
  34   1.0000      -0.745916       -20.2974
  35   1.0000      -0.740812       -20.1585
  36   1.0000      -0.639490       -17.4014
  37   0.0000      -0.442730       -12.0473
  38   0.0000      -0.387581       -10.5466
  39   0.0000      -0.387579       -10.5466
  40   0.0000      -0.336375        -9.1532
  41   0.0000      -0.275626        -7.5002

MULLIKEN ATOMIC CHARGES AND SPIN POPULATIONS
--------------------------------------------
   0 Ag:    0.376718    0.200183
   1 Ag:    0.482479    0.025849
   2 Ag:    0.482455    0.025853
   3 Ag:    0.482459    0.025853
   4 H :    0.175889    0.722261
Sum of atomic charges         :    2.0000000

LOEWDIN ATOMIC CHARGES AND SPIN POPULATIONS
-------------------------------------------
   0 Ag:    0.412958    0.319447
   1 Ag:    0.498563    0.018087
   2 Ag:    0.498560    0.018087
   3 Ag:    0.498560    0.018087
   4 H :    0.091359    0.626291

  Mayer bond orders larger than 0.100000
B(  0-Ag,  1-Ag) :   0.3001 B(  0-Ag,  2-Ag) :   0.3001 B(  0-Ag,  3-Ag) :   0.3001
B(  0-Ag,  4-H ) :   0.4539 B(  1-Ag,  2-Ag) :   0.3441 B(  1-Ag,  3-Ag) :   0.3441
B(  2-Ag,  3-Ag) :   0.3441

MP2 TOTAL ENERGY:     -587.592249726 Eh
Dispersion correction           -0.012262972
FINAL SINGLE POINT ENERGY      -587.604512697619

DIPOLE MOMENT
-------------
                                X             Y             Z
Electronic contribution:     -0.00000       0.00001      -5.24377
Nuclear contribution   :      0.00000       0.00000       5.41329
                        -----------------------------------------
Total Dipole Moment    :     -0.00000       0.00001       0.16952
                        -----------------------------------------
Magnitude (a.u.)       :      0.16952
Magnitude (Debye)      :      0.43089

Rotational constants in cm-1:     0.019934     0.019231     0.019231
Rotational constants in MHz :   597.606998   576.544336   576.544235

                             ****ORCA TERMINATED NORMALLY****
TOTAL RUN TIME: 0 days 0 hours 0 minutes 16 seconds 640 msec
