                         Program Version 4.2.0 -  RELEASE  -
|  1> #
|  2> # Ag04C2_H_F ri-B2PLYP-D3BJ/Def2-TZVPPD
|  3> #
|  4> ! rijk ri-b2plyp d3bj def2-tzvppd def2/jk def2-tzvppd/c grid4 nofinalgrid
|  5>
|  6> *xyz 2 2
|  7> Ag       0.000000    1.604405   -0.611776
|  8> Ag       1.389456   -0.802203   -0.611776
|  9> Ag      -1.389456   -0.802203   -0.611776
| 10> Ag       0.000000    0.000000    1.871824
| 11> H        0.000000    0.000000   -1.715373
| 12> *
| 13>
| 14> %maxcore 5000
| 15>
| 16> %pal
| 17> nprocs = 24
| 18> end
| 19>
| 20>
| 21>                          ****END OF INPUT****

CARTESIAN COORDINATES (ANGSTROEM)
---------------------------------
  Ag     0.000000    1.604405   -0.611776
  Ag     1.389456   -0.802203   -0.611776
  Ag    -1.389456   -0.802203   -0.611776
  Ag     0.000000    0.000000    1.871824
  H      0.000000    0.000000   -1.715373

 Total Charge           Charge          ....    2
 Multiplicity           Mult            ....    2
 Number of Electrons    NEL             ....   75
 Basis Dimension        Dim             ....  241

ORBITAL ENERGIES
----------------
                 SPIN UP ORBITALS
  NO   OCC          E(Eh)            E(eV)
   0   1.0000      -4.368117      -118.8625
   1   1.0000      -4.367792      -118.8537
   2   1.0000      -4.367791      -118.8536
   3   1.0000      -4.340546      -118.1123
   4   1.0000      -2.907381       -79.1139
   5   1.0000      -2.904507       -79.0357
   6   1.0000      -2.904507       -79.0357
   7   1.0000      -2.903013       -78.9950
   8   1.0000      -2.902655       -78.9852
   9   1.0000      -2.902653       -78.9852
  10   1.0000      -2.901875       -78.9640
  11   1.0000      -2.901874       -78.9640
  12   1.0000      -2.901140       -78.9440
  13   1.0000      -2.875599       -78.2490
  14   1.0000      -2.874286       -78.2133
  15   1.0000      -2.874285       -78.2133
  16   1.0000      -0.885775       -24.1032
  17   1.0000      -0.831605       -22.6291
  18   1.0000      -0.814744       -22.1703
  19   1.0000      -0.814740       -22.1702
  20   1.0000      -0.803038       -21.8518
  21   1.0000      -0.803036       -21.8517
  22   1.0000      -0.801013       -21.7967
  23   1.0000      -0.788125       -21.4460
  24   1.0000      -0.788119       -21.4458
  25   1.0000      -0.780084       -21.2272
  26   1.0000      -0.780081       -21.2271
  27   1.0000      -0.777554       -21.1583
  28   1.0000      -0.773899       -21.0589
  29   1.0000      -0.773898       -21.0588
  30   1.0000      -0.762992       -20.7621
  31   1.0000      -0.759874       -20.6772
  32   1.0000      -0.759867       -20.6770
  33   1.0000      -0.755025       -20.5453
  34   1.0000      -0.749185       -20.3864
  35   1.0000      -0.749179       -20.3862
  36   1.0000      -0.719906       -19.5896
  37   1.0000      -0.568636       -15.4734
  38   0.0000      -0.396655       -10.7935
  39   0.0000      -0.396654       -10.7935
  40   0.0000      -0.335798        -9.1375
  41   0.0000      -0.290868        -7.9149
  42   0.0000      -0.274754        -7.4764

                 SPIN DOWN ORBITALS
  NO   OCC          E(Eh)            E(eV)
   0   1.0000      -4.365745      -118.7980
   1   1.0000      -4.365423      -118.7892
   2   1.0000      -4.365422      -118.7892
   3   1.0000      -4.339803      -118.0920
   4   1.0000      -2.903950       -79.0205
   5   1.0000      -2.902548       -78.9824
   6   1.0000      -2.902548       -78.9823
   7   1.0000      -2.900518       -78.9271
   8   1.0000      -2.899838       -78.9086
   9   1.0000      -2.899836       -78.9085
  10   1.0000      -2.899039       -78.8869
  11   1.0000      -2.898709       -78.8779
  12   1.0000      -2.898706       -78.8778
  13   1.0000      -2.876326       -78.2688
  14   1.0000      -2.875105       -78.2356
  15   1.0000      -2.875104       -78.2356
  16   1.0000      -0.863324       -23.4922
  17   1.0000      -0.826425       -22.4882
  18   1.0000      -0.814258       -22.1571
  19   1.0000      -0.814254       -22.1570
  20   1.0000      -0.799144       -21.7458
  21   1.0000      -0.799140       -21.7457
  22   1.0000      -0.798511       -21.7286
  23   1.0000      -0.786145       -21.3921
  24   1.0000      -0.786139       -21.3919
  25   1.0000      -0.776679       -21.1345
  26   1.0000      -0.774717       -21.0811
  27   1.0000      -0.774708       -21.0809
  28   1.0000      -0.769946       -20.9513
  29   1.0000      -0.769939       -20.9511
  30   1.0000      -0.759375       -20.6636
  31   1.0000      -0.757658       -20.6169
  32   1.0000      -0.757650       -20.6167
  33   1.0000      -0.754054       -20.5189
  34   1.0000      -0.746651       -20.3174
  35   1.0000      -0.746644       -20.3172
  36   1.0000      -0.693188       -18.8626
  37   0.0000      -0.428938       -11.6720
  38   0.0000      -0.389487       -10.5985
  39   0.0000      -0.389486       -10.5985
  40   0.0000      -0.317350        -8.6355
  41   0.0000      -0.282752        -7.6941

MULLIKEN ATOMIC CHARGES AND SPIN POPULATIONS
--------------------------------------------
   0 Ag:    0.516562    0.062943
   1 Ag:    0.516377    0.062883
   2 Ag:    0.516363    0.062882
   3 Ag:    0.393371    0.500997
   4 H :    0.057327    0.310295
Sum of atomic charges         :    2.0000000

LOEWDIN ATOMIC CHARGES AND SPIN POPULATIONS
-------------------------------------------
   0 Ag:    0.542975    0.168115
   1 Ag:    0.542968    0.168115
   2 Ag:    0.542968    0.168115
   3 Ag:    0.508292    0.304500
   4 H :   -0.137203    0.191156

  Mayer bond orders larger than 0.100000
B(  0-Ag,  1-Ag) :   0.2901 B(  0-Ag,  2-Ag) :   0.2901 B(  0-Ag,  3-Ag) :   0.2515
B(  0-Ag,  4-H ) :   0.2529 B(  1-Ag,  2-Ag) :   0.2901 B(  1-Ag,  3-Ag) :   0.2515
B(  1-Ag,  4-H ) :   0.2530 B(  2-Ag,  3-Ag) :   0.2515 B(  2-Ag,  4-H ) :   0.2530

MP2 TOTAL ENERGY:     -587.605264613 Eh
Dispersion correction           -0.012827966
FINAL SINGLE POINT ENERGY      -587.618092579558

DIPOLE MOMENT
-------------
                                X             Y             Z
Electronic contribution:      0.00000       0.00002       2.67358
Nuclear contribution   :      0.00000       0.00000      -2.67399
                        -----------------------------------------
Total Dipole Moment    :      0.00000       0.00002      -0.00040
                        -----------------------------------------
Magnitude (a.u.)       :      0.00040
Magnitude (Debye)      :      0.00102

Rotational constants in cm-1:     0.020237     0.018353     0.018353
Rotational constants in MHz :   606.690796   550.208253   550.208173

                             ****ORCA TERMINATED NORMALLY****
TOTAL RUN TIME: 0 days 0 hours 0 minutes 16 seconds 199 msec
