                         Program Version 4.2.0 -  RELEASE  -
|  1> #
|  2> # Ag04N0 ri-B2PLYP-D3BJ/Def2-TZVPPD
|  3> #
|  4> ! rijk ri-b2plyp d3bj def2-tzvppd def2/jk def2-tzvppd/c grid4 nofinalgrid
|  5>
|  6> *xyz 0 1
|  7> Ag      -1.015022   -0.433109    0.700282
|  8> Ag       0.974659   -2.209777    0.043294
|  9> Ag       1.013798    0.433158   -0.699441
| 10> Ag      -0.973435    2.209727   -0.044135
| 11> *
| 12>
| 13> %maxcore 5000
| 14>
| 15> %pal
| 16> nprocs = 24
| 17> end
| 18>
| 19>
| 20>                          ****END OF INPUT****

CARTESIAN COORDINATES (ANGSTROEM)
---------------------------------
  Ag    -1.015022   -0.433109    0.700282
  Ag     0.974659   -2.209777    0.043294
  Ag     1.013798    0.433158   -0.699441
  Ag    -0.973435    2.209727   -0.044135

 Total Charge           Charge          ....    0
 Multiplicity           Mult            ....    1
 Number of Electrons    NEL             ....   76
 Basis Dimension        Dim             ....  224

ORBITAL ENERGIES
----------------

  NO   OCC          E(Eh)            E(eV)
   0   2.0000      -3.991983      -108.6274
   1   2.0000      -3.991492      -108.6140
   2   2.0000      -3.962495      -107.8250
   3   2.0000      -3.962447      -107.8237
   4   2.0000      -2.531254       -68.8789
   5   2.0000      -2.525707       -68.7280
   6   2.0000      -2.525419       -68.7201
   7   2.0000      -2.525348       -68.7182
   8   2.0000      -2.525101       -68.7115
   9   2.0000      -2.524940       -68.7071
  10   2.0000      -2.497364       -67.9567
  11   2.0000      -2.497203       -67.9524
  12   2.0000      -2.495706       -67.9116
  13   2.0000      -2.495623       -67.9093
  14   2.0000      -2.494256       -67.8721
  15   2.0000      -2.494211       -67.8709
  16   2.0000      -0.454112       -12.3570
  17   2.0000      -0.453136       -12.3304
  18   2.0000      -0.436457       -11.8766
  19   2.0000      -0.431263       -11.7353
  20   2.0000      -0.427629       -11.6364
  21   2.0000      -0.424754       -11.5582
  22   2.0000      -0.413392       -11.2490
  23   2.0000      -0.409945       -11.1552
  24   2.0000      -0.397219       -10.8089
  25   2.0000      -0.394478       -10.7343
  26   2.0000      -0.385480       -10.4894
  27   2.0000      -0.381816       -10.3897
  28   2.0000      -0.381486       -10.3808
  29   2.0000      -0.380604       -10.3568
  30   2.0000      -0.375490       -10.2176
  31   2.0000      -0.375134       -10.2079
  32   2.0000      -0.374238       -10.1835
  33   2.0000      -0.372767       -10.1435
  34   2.0000      -0.368267       -10.0211
  35   2.0000      -0.356320        -9.6960
  36   2.0000      -0.279264        -7.5992
  37   2.0000      -0.182902        -4.9770
  38   0.0000      -0.066157        -1.8002
  39   0.0000      -0.028533        -0.7764
  40   0.0000      -0.013256        -0.3607
  41   0.0000       0.015532         0.4227
  42   0.0000       0.018920         0.5148

MULLIKEN ATOMIC CHARGES
-----------------------
   0 Ag:    0.130531
   1 Ag:   -0.130426
   2 Ag:    0.130193
   3 Ag:   -0.130298
Sum of atomic charges:   -0.0000000

LOEWDIN ATOMIC CHARGES
----------------------
   0 Ag:   -0.080340
   1 Ag:    0.080687
   2 Ag:   -0.081151
   3 Ag:    0.080804

  Mayer bond orders larger than 0.100000
B(  0-Ag,  1-Ag) :   0.5053 B(  0-Ag,  2-Ag) :   0.4312 B(  0-Ag,  3-Ag) :   0.5056
B(  1-Ag,  2-Ag) :   0.5058 B(  1-Ag,  3-Ag) :   0.1552 B(  2-Ag,  3-Ag) :   0.5058

MP2 TOTAL ENERGY:     -587.702937223 Eh
Dispersion correction           -0.010389521
FINAL SINGLE POINT ENERGY      -587.713326743628

DIPOLE MOMENT
-------------
                                X             Y             Z
Electronic contribution:     -0.00147       0.00025       0.00079
Nuclear contribution   :      0.00000       0.00000       0.00000
                        -----------------------------------------
Total Dipole Moment    :     -0.00147       0.00025       0.00079
                        -----------------------------------------
Magnitude (a.u.)       :      0.00169
Magnitude (Debye)      :      0.00429

Rotational constants in cm-1:     0.045790     0.013394     0.010363
Rotational constants in MHz :  1372.764620   401.554164   310.676613

                             ****ORCA TERMINATED NORMALLY****
TOTAL RUN TIME: 0 days 0 hours 0 minutes 9 seconds 958 msec
