                         Program Version 4.2.0 -  RELEASE  -
|  1> #
|  2> # Au01N0_F ri-B2PLYP-D3BJ/Def2-TZVPPD
|  3> #
|  4> ! rijk ri-b2plyp d3bj def2-tzvppd def2/jk def2-tzvppd/c grid4 nofinalgrid
|  5>
|  6> *xyz 0 1
|  7> Au       0.000000    0.000000    0.196853
|  8> F        0.000000    0.000000   -1.727931
|  9> *
| 10>
| 11> %maxcore 5000
| 12>
| 13> %pal
| 14> nprocs = 24
| 15> end
| 16>
| 17>
| 18>                          ****END OF INPUT****

CARTESIAN COORDINATES (ANGSTROEM)
---------------------------------
  Au     0.000000    0.000000    0.196853
  F      0.000000    0.000000   -1.727931

 Total Charge           Charge          ....    0
 Multiplicity           Mult            ....    1
 Number of Electrons    NEL             ....   28
 Basis Dimension        Dim             ....   99

ORBITAL ENERGIES
----------------

  NO   OCC          E(Eh)            E(eV)
   0   2.0000     -25.279383      -687.8870
   1   2.0000      -4.420108      -120.2772
   2   2.0000      -2.547394       -69.3181
   3   2.0000      -2.534116       -68.9568
   4   2.0000      -2.534116       -68.9568
   5   2.0000      -1.241545       -33.7842
   6   2.0000      -0.508243       -13.8300
   7   2.0000      -0.476079       -12.9548
   8   2.0000      -0.476079       -12.9548
   9   2.0000      -0.404709       -11.0127
  10   2.0000      -0.404709       -11.0127
  11   2.0000      -0.375684       -10.2229
  12   2.0000      -0.375684       -10.2229
  13   2.0000      -0.346997        -9.4423
  14   0.0000      -0.101389        -2.7589
  15   0.0000       0.022541         0.6134
  16   0.0000       0.022541         0.6134
  17   0.0000       0.061776         1.6810
  18   0.0000       0.123377         3.3573

MULLIKEN ATOMIC CHARGES
-----------------------
   0 Au:    0.541791
   1 F :   -0.541791
Sum of atomic charges:   -0.0000000

LOEWDIN ATOMIC CHARGES
----------------------
   0 Au:    0.650206
   1 F :   -0.650206

  Mayer bond orders larger than 0.100000
B(  0-Au,  1-F ) :   0.7440

MP2 TOTAL ENERGY:     -235.395756141 Eh
Dispersion correction           -0.000500188
FINAL SINGLE POINT ENERGY      -235.396256329188

DIPOLE MOMENT
-------------
                                X             Y             Z
Electronic contribution:     -0.00000      -0.00000      25.66716
Nuclear contribution   :      0.00000       0.00000     -23.77673
                        -----------------------------------------
Total Dipole Moment    :     -0.00000      -0.00000       1.89043
                        -----------------------------------------
Magnitude (a.u.)       :      1.89043
Magnitude (Debye)      :      4.80509

Rotational constants in cm-1:     0.000000     0.262612     0.262612
Rotational constants in MHz :     0.000000  7872.917876  7872.917876

                             ****ORCA TERMINATED NORMALLY****
TOTAL RUN TIME: 0 days 0 hours 0 minutes 4 seconds 679 msec
