                         Program Version 4.2.0 -  RELEASE  -
|  1> #
|  2> # Au01N0_H ri-B2PLYP-D3BJ/Def2-TZVPPD
|  3> #
|  4> ! rijk ri-b2plyp d3bj def2-tzvppd def2/jk def2-tzvppd/c grid4 nofinalgrid
|  5>
|  6> *xyz 0 1
|  7> Au       0.000000    0.000000    0.019034
|  8> H        0.000000    0.000000   -1.503691
|  9> *
| 10>
| 11> %maxcore 5000
| 12>
| 13> %pal
| 14> nprocs = 24
| 15> end
| 16>
| 17>
| 18>                          ****END OF INPUT****

CARTESIAN COORDINATES (ANGSTROEM)
---------------------------------
  Au     0.000000    0.000000    0.019034
  H      0.000000    0.000000   -1.503691

 Total Charge           Charge          ....    0
 Multiplicity           Mult            ....    1
 Number of Electrons    NEL             ....   20
 Basis Dimension        Dim             ....   76

ORBITAL ENERGIES
----------------

  NO   OCC          E(Eh)            E(eV)
   0   2.0000      -4.397735      -119.6685
   1   2.0000      -2.525907       -68.7334
   2   2.0000      -2.507820       -68.2412
   3   2.0000      -2.507820       -68.2412
   4   2.0000      -0.482855       -13.1392
   5   2.0000      -0.394910       -10.7460
   6   2.0000      -0.394910       -10.7460
   7   2.0000      -0.376111       -10.2345
   8   2.0000      -0.376111       -10.2345
   9   2.0000      -0.303088        -8.2474
  10   0.0000      -0.048978        -1.3327
  11   0.0000       0.021430         0.5831
  12   0.0000       0.021430         0.5831
  13   0.0000       0.101084         2.7506
  14   0.0000       0.132036         3.5929

MULLIKEN ATOMIC CHARGES
-----------------------
   0 Au:   -0.049624
   1 H :    0.049624
Sum of atomic charges:   -0.0000000

LOEWDIN ATOMIC CHARGES
----------------------
   0 Au:    0.358218
   1 H :   -0.358218

  Mayer bond orders larger than 0.100000
B(  0-Au,  1-H ) :   1.1127

MP2 TOTAL ENERGY:     -136.181406441 Eh
Dispersion correction           -0.000391088
FINAL SINGLE POINT ENERGY      -136.181797529267

DIPOLE MOMENT
-------------
                                X             Y             Z
Electronic contribution:     -0.00000       0.00000       3.29725
Nuclear contribution   :      0.00000       0.00000      -2.58451
                        -----------------------------------------
Total Dipole Moment    :     -0.00000       0.00000       0.71274
                        -----------------------------------------
Magnitude (a.u.)       :      0.71274
Magnitude (Debye)      :      1.81163

Rotational constants in cm-1:     0.000000     7.249537     7.249537
Rotational constants in MHz :     0.000000 217335.666254 217335.666254

                             ****ORCA TERMINATED NORMALLY****
TOTAL RUN TIME: 0 days 0 hours 0 minutes 4 seconds 379 msec
