                         Program Version 4.2.0 -  RELEASE  -
|  1> #
|  2> # Au02N0 ri-B2PLYP-D3BJ/Def2-TZVPPD
|  3> #
|  4> ! rijk ri-b2plyp d3bj def2-tzvppd def2/jk def2-tzvppd/c grid4 nofinalgrid
|  5>
|  6> *xyz 0 1
|  7> Au       0.000000    0.000000    1.239541
|  8> Au       0.000000    0.000000   -1.239541
|  9> *
| 10>
| 11> %maxcore 5000
| 12>
| 13> %pal
| 14> nprocs = 24
| 15> end
| 16>
| 17>
| 18>                          ****END OF INPUT****

CARTESIAN COORDINATES (ANGSTROEM)
---------------------------------
  Au     0.000000    0.000000    1.239541
  Au     0.000000    0.000000   -1.239541

 Total Charge           Charge          ....    0
 Multiplicity           Mult            ....    1
 Number of Electrons    NEL             ....   38
 Basis Dimension        Dim             ....  118

ORBITAL ENERGIES
----------------

  NO   OCC          E(Eh)            E(eV)
   0   2.0000      -4.367949      -118.8579
   1   2.0000      -4.367076      -118.8342
   2   2.0000      -2.498778       -67.9952
   3   2.0000      -2.483825       -67.5883
   4   2.0000      -2.483461       -67.5784
   5   2.0000      -2.483461       -67.5784
   6   2.0000      -2.482171       -67.5433
   7   2.0000      -2.482171       -67.5433
   8   2.0000      -0.430739       -11.7210
   9   2.0000      -0.401721       -10.9314
  10   2.0000      -0.401721       -10.9314
  11   2.0000      -0.364329        -9.9139
  12   2.0000      -0.364324        -9.9138
  13   2.0000      -0.350406        -9.5350
  14   2.0000      -0.350400        -9.5349
  15   2.0000      -0.332208        -9.0399
  16   2.0000      -0.332208        -9.0399
  17   2.0000      -0.322604        -8.7785
  18   2.0000      -0.275954        -7.5091
  19   0.0000      -0.079458        -2.1622
  20   0.0000       0.008749         0.2381
  21   0.0000       0.008749         0.2381
  22   0.0000       0.030073         0.8183
  23   0.0000       0.074435         2.0255

MULLIKEN ATOMIC CHARGES
-----------------------
   0 Au:    0.000001
   1 Au:   -0.000001
Sum of atomic charges:    0.0000000

LOEWDIN ATOMIC CHARGES
----------------------
   0 Au:    0.000000
   1 Au:   -0.000000

  Mayer bond orders larger than 0.100000
B(  0-Au,  1-Au) :   1.1087

MP2 TOTAL ENERGY:     -271.217015997 Eh
Dispersion correction           -0.002233966
FINAL SINGLE POINT ENERGY      -271.219249962670

DIPOLE MOMENT
-------------
                                X             Y             Z
Electronic contribution:      0.00000      -0.00000       0.00000
Nuclear contribution   :      0.00000       0.00000       0.00000
                        -----------------------------------------
Total Dipole Moment    :      0.00000      -0.00000       0.00000
                        -----------------------------------------
Magnitude (a.u.)       :      0.00000
Magnitude (Debye)      :      0.00000

Rotational constants in cm-1:     0.000000     0.027852     0.027852
Rotational constants in MHz :     0.000000   834.974952   834.974952

                             ****ORCA TERMINATED NORMALLY****
TOTAL RUN TIME: 0 days 0 hours 0 minutes 6 seconds 354 msec
