                         Program Version 4.2.0 -  RELEASE  -
|  1> #
|  2> # Au03N0_D3H ri-B2PLYP-D3BJ/Def2-TZVPPD
|  3> #
|  4> ! rijk ri-b2plyp d3bj def2-tzvppd def2/jk def2-tzvppd/c grid4 nofinalgrid
|  5>
|  6> *xyz 0 2
|  7> Au       0.000000    1.515176   -0.000000
|  8> Au       1.312181   -0.757588    0.000000
|  9> Au      -1.312181   -0.757588   -0.000000
| 10> *
| 11>
| 12> %maxcore 5000
| 13>
| 14> %pal
| 15> nprocs = 24
| 16> end
| 17>
| 18>
| 19>                          ****END OF INPUT****

CARTESIAN COORDINATES (ANGSTROEM)
---------------------------------
  Au     0.000000    1.515176   -0.000000
  Au     1.312181   -0.757588    0.000000
  Au    -1.312181   -0.757588   -0.000000

 Total Charge           Charge          ....    0
 Multiplicity           Mult            ....    2
 Number of Electrons    NEL             ....   57
 Basis Dimension        Dim             ....  177

ORBITAL ENERGIES
----------------
                 SPIN UP ORBITALS
  NO   OCC          E(Eh)            E(eV)
   0   1.0000      -4.388082      -119.4058
   1   1.0000      -4.387674      -119.3947
   2   1.0000      -4.368699      -118.8783
   3   1.0000      -2.514743       -68.4296
   4   1.0000      -2.507821       -68.2413
   5   1.0000      -2.506620       -68.2086
   6   1.0000      -2.503348       -68.1196
   7   1.0000      -2.503284       -68.1178
   8   1.0000      -2.502577       -68.0986
   9   1.0000      -2.488191       -67.7071
  10   1.0000      -2.484677       -67.6115
  11   1.0000      -2.480576       -67.4999
  12   1.0000      -0.463134       -12.6025
  13   1.0000      -0.432505       -11.7691
  14   1.0000      -0.424819       -11.5599
  15   1.0000      -0.422053       -11.4846
  16   1.0000      -0.399204       -10.8629
  17   1.0000      -0.395015       -10.7489
  18   1.0000      -0.388580       -10.5738
  19   1.0000      -0.364345        -9.9143
  20   1.0000      -0.357505        -9.7282
  21   1.0000      -0.356624        -9.7042
  22   1.0000      -0.350089        -9.5264
  23   1.0000      -0.345811        -9.4100
  24   1.0000      -0.345566        -9.4033
  25   1.0000      -0.342832        -9.3289
  26   1.0000      -0.324506        -8.8302
  27   1.0000      -0.316786        -8.6202
  28   1.0000      -0.192573        -5.2402
  29   0.0000      -0.099662        -2.7119
  30   0.0000      -0.012132        -0.3301
  31   0.0000       0.005908         0.1608
  32   0.0000       0.025243         0.6869
  33   0.0000       0.027072         0.7367

                 SPIN DOWN ORBITALS
  NO   OCC          E(Eh)            E(eV)
   0   1.0000      -4.387107      -119.3792
   1   1.0000      -4.386709      -119.3684
   2   1.0000      -4.364439      -118.7624
   3   1.0000      -2.514061       -68.4111
   4   1.0000      -2.506167       -68.1963
   5   1.0000      -2.505141       -68.1684
   6   1.0000      -2.503181       -68.1150
   7   1.0000      -2.502941       -68.1085
   8   1.0000      -2.502255       -68.0898
   9   1.0000      -2.483214       -67.5717
  10   1.0000      -2.481549       -67.5264
  11   1.0000      -2.478610       -67.4464
  12   1.0000      -0.457714       -12.4550
  13   1.0000      -0.430782       -11.7222
  14   1.0000      -0.420983       -11.4555
  15   1.0000      -0.415954       -11.3187
  16   1.0000      -0.395288       -10.7563
  17   1.0000      -0.393571       -10.7096
  18   1.0000      -0.386004       -10.5037
  19   1.0000      -0.363637        -9.8951
  20   1.0000      -0.358248        -9.7484
  21   1.0000      -0.355607        -9.6765
  22   1.0000      -0.345852        -9.4111
  23   1.0000      -0.341461        -9.2916
  24   1.0000      -0.336853        -9.1662
  25   1.0000      -0.336117        -9.1462
  26   1.0000      -0.312427        -8.5016
  27   1.0000      -0.306908        -8.3514
  28   0.0000      -0.091128        -2.4797
  29   0.0000      -0.066577        -1.8117
  30   0.0000      -0.007324        -0.1993
  31   0.0000       0.016925         0.4606
  32   0.0000       0.039418         1.0726

MULLIKEN ATOMIC CHARGES AND SPIN POPULATIONS
--------------------------------------------
   0 Au:   -0.139359    0.642765
   1 Au:    0.069670    0.178637
   2 Au:    0.069688    0.178598
Sum of atomic charges         :   -0.0000000

LOEWDIN ATOMIC CHARGES AND SPIN POPULATIONS
-------------------------------------------
   0 Au:   -0.092825    0.526887
   1 Au:    0.046407    0.236568
   2 Au:    0.046418    0.236545

  Mayer bond orders larger than 0.100000
B(  0-Au,  1-Au) :   0.5409 B(  0-Au,  2-Au) :   0.5409 B(  1-Au,  2-Au) :   0.7718

MP2 TOTAL ENERGY:     -406.821252347 Eh
Dispersion correction           -0.006626723
FINAL SINGLE POINT ENERGY      -406.827879069832

DIPOLE MOMENT
-------------
                                X             Y             Z
Electronic contribution:     -0.00004      -0.57668      -0.00000
Nuclear contribution   :      0.00000       0.00000       0.00000
                        -----------------------------------------
Total Dipole Moment    :     -0.00004      -0.57668      -0.00000
                        -----------------------------------------
Magnitude (a.u.)       :      0.57668
Magnitude (Debye)      :      1.46580

Rotational constants in cm-1:     0.024853     0.024853     0.012427
Rotational constants in MHz :   745.088417   745.088311   372.544182

                             ****ORCA TERMINATED NORMALLY****
TOTAL RUN TIME: 0 days 0 hours 0 minutes 9 seconds 928 msec
