                         Program Version 4.2.0 -  RELEASE  -
|  1> #
|  2> # Au03C1_D3H ri-B2PLYP-D3BJ/Def2-TZVPPD
|  3> #
|  4> ! rijk ri-b2plyp d3bj def2-tzvppd def2/jk def2-tzvppd/c grid4 nofinalgrid
|  5>
|  6> *xyz 1 1
|  7> Au       0.000000    1.501400   -0.000000
|  8> Au       1.300251   -0.750700   -0.000000
|  9> Au      -1.300251   -0.750700   -0.000000
| 10> *
| 11>
| 12> %maxcore 5000
| 13>
| 14> %pal
| 15> nprocs = 24
| 16> end
| 17>
| 18>
| 19>                          ****END OF INPUT****

CARTESIAN COORDINATES (ANGSTROEM)
---------------------------------
  Au     0.000000    1.501400   -0.000000
  Au     1.300251   -0.750700   -0.000000
  Au    -1.300251   -0.750700   -0.000000

 Total Charge           Charge          ....    1
 Multiplicity           Mult            ....    1
 Number of Electrons    NEL             ....   56
 Basis Dimension        Dim             ....  177

ORBITAL ENERGIES
----------------

  NO   OCC          E(Eh)            E(eV)
   0   2.0000      -4.578988      -124.6006
   1   2.0000      -4.578313      -124.5822
   2   2.0000      -4.578312      -124.5822
   3   2.0000      -2.709152       -73.7198
   4   2.0000      -2.701808       -73.5199
   5   2.0000      -2.701805       -73.5199
   6   2.0000      -2.695186       -73.3397
   7   2.0000      -2.695178       -73.3395
   8   2.0000      -2.694312       -73.3160
   9   2.0000      -2.694270       -73.3148
  10   2.0000      -2.693129       -73.2838
  11   2.0000      -2.693127       -73.2837
  12   2.0000      -0.660716       -17.9790
  13   2.0000      -0.626958       -17.0604
  14   2.0000      -0.626957       -17.0604
  15   2.0000      -0.619836       -16.8666
  16   2.0000      -0.594463       -16.1762
  17   2.0000      -0.588119       -16.0035
  18   2.0000      -0.588116       -16.0035
  19   2.0000      -0.554849       -15.0982
  20   2.0000      -0.554848       -15.0982
  21   2.0000      -0.547979       -14.9113
  22   2.0000      -0.545834       -14.8529
  23   2.0000      -0.545828       -14.8527
  24   2.0000      -0.545045       -14.8314
  25   2.0000      -0.545044       -14.8314
  26   2.0000      -0.509415       -13.8619
  27   2.0000      -0.505623       -13.7587
  28   0.0000      -0.261324        -7.1110
  29   0.0000      -0.261324        -7.1110
  30   0.0000      -0.170678        -4.6444
  31   0.0000      -0.138580        -3.7710
  32   0.0000      -0.123439        -3.3590

MULLIKEN ATOMIC CHARGES
-----------------------
   0 Au:    0.333314
   1 Au:    0.333341
   2 Au:    0.333345
Sum of atomic charges:    1.0000000

LOEWDIN ATOMIC CHARGES
----------------------
   0 Au:    0.333326
   1 Au:    0.333337
   2 Au:    0.333337

  Mayer bond orders larger than 0.100000
B(  0-Au,  1-Au) :   0.5998 B(  0-Au,  2-Au) :   0.5998 B(  1-Au,  2-Au) :   0.5999

MP2 TOTAL ENERGY:     -406.572229080 Eh
Dispersion correction           -0.006638617
FINAL SINGLE POINT ENERGY      -406.578867697017

DIPOLE MOMENT
-------------
                                X             Y             Z
Electronic contribution:     -0.00000      -0.00003       0.00000
Nuclear contribution   :      0.00000       0.00000      -0.00000
                        -----------------------------------------
Total Dipole Moment    :     -0.00000      -0.00003       0.00000
                        -----------------------------------------
Magnitude (a.u.)       :      0.00003
Magnitude (Debye)      :      0.00006

Rotational constants in cm-1:     0.025312     0.025312     0.012656
Rotational constants in MHz :   758.824167   758.823632   379.411950

                             ****ORCA TERMINATED NORMALLY****
TOTAL RUN TIME: 0 days 0 hours 0 minutes 7 seconds 377 msec
