                         Program Version 4.2.0 -  RELEASE  -
|  1> #
|  2> # Au03N0_LIN ri-B2PLYP-D3BJ/Def2-TZVPPD
|  3> #
|  4> ! rijk ri-b2plyp d3bj def2-tzvppd def2/jk def2-tzvppd/c grid4 nofinalgrid
|  5>
|  6> *xyz 0 2
|  7> Au       0.000000    0.000000    0.000000
|  8> Au       0.000000    0.000000    2.547414
|  9> Au       0.000000    0.000000   -2.547414
| 10> *
| 11>
| 12> %maxcore 5000
| 13>
| 14> %pal
| 15> nprocs = 24
| 16> end
| 17>
| 18>
| 19>                          ****END OF INPUT****

CARTESIAN COORDINATES (ANGSTROEM)
---------------------------------
  Au     0.000000    0.000000    0.000000
  Au     0.000000    0.000000    2.547414
  Au     0.000000    0.000000   -2.547414

 Total Charge           Charge          ....    0
 Multiplicity           Mult            ....    2
 Number of Electrons    NEL             ....   57
 Basis Dimension        Dim             ....  177

ORBITAL ENERGIES
----------------
                 SPIN UP ORBITALS
  NO   OCC          E(Eh)            E(eV)
   0   1.0000      -4.378194      -119.1367
   1   1.0000      -4.378183      -119.1364
   2   1.0000      -4.362781      -118.7173
   3   1.0000      -2.503605       -68.1266
   4   1.0000      -2.499515       -68.0153
   5   1.0000      -2.494023       -67.8658
   6   1.0000      -2.494023       -67.8658
   7   1.0000      -2.494003       -67.8653
   8   1.0000      -2.494003       -67.8653
   9   1.0000      -2.482836       -67.5614
  10   1.0000      -2.476637       -67.3927
  11   1.0000      -2.476637       -67.3927
  12   1.0000      -0.456650       -12.4261
  13   1.0000      -0.414173       -11.2702
  14   1.0000      -0.414173       -11.2702
  15   1.0000      -0.382441       -10.4067
  16   1.0000      -0.381732       -10.3875
  17   1.0000      -0.381732       -10.3875
  18   1.0000      -0.375381       -10.2146
  19   1.0000      -0.375375       -10.2145
  20   1.0000      -0.372640       -10.1400
  21   1.0000      -0.372634       -10.1399
  22   1.0000      -0.347043        -9.4435
  23   1.0000      -0.347035        -9.4433
  24   1.0000      -0.324165        -8.8210
  25   1.0000      -0.324165        -8.8210
  26   1.0000      -0.320388        -8.7182
  27   1.0000      -0.296925        -8.0797
  28   1.0000      -0.262259        -7.1364
  29   0.0000      -0.060874        -1.6565
  30   0.0000      -0.005332        -0.1451
  31   0.0000      -0.005332        -0.1451
  32   0.0000       0.020012         0.5446
  33   0.0000       0.032637         0.8881

                 SPIN DOWN ORBITALS
  NO   OCC          E(Eh)            E(eV)
   0   1.0000      -4.376644      -119.0945
   1   1.0000      -4.376630      -119.0942
   2   1.0000      -4.363844      -118.7462
   3   1.0000      -2.504272       -68.1447
   4   1.0000      -2.500305       -68.0368
   5   1.0000      -2.493970       -67.8644
   6   1.0000      -2.493970       -67.8644
   7   1.0000      -2.493919       -67.8630
   8   1.0000      -2.493919       -67.8630
   9   1.0000      -2.484009       -67.5933
  10   1.0000      -2.477833       -67.4253
  11   1.0000      -2.477833       -67.4253
  12   1.0000      -0.452767       -12.3204
  13   1.0000      -0.410522       -11.1709
  14   1.0000      -0.410522       -11.1709
  15   1.0000      -0.380504       -10.3540
  16   1.0000      -0.376566       -10.2469
  17   1.0000      -0.376566       -10.2469
  18   1.0000      -0.370051       -10.0696
  19   1.0000      -0.370045       -10.0694
  20   1.0000      -0.366512        -9.9733
  21   1.0000      -0.366506        -9.9731
  22   1.0000      -0.347318        -9.4510
  23   1.0000      -0.347310        -9.4508
  24   1.0000      -0.323843        -8.8122
  25   1.0000      -0.323843        -8.8122
  26   1.0000      -0.311882        -8.4867
  27   1.0000      -0.270269        -7.3544
  28   0.0000      -0.138883        -3.7792
  29   0.0000      -0.042686        -1.1615
  30   0.0000       0.002284         0.0621
  31   0.0000       0.002284         0.0621
  32   0.0000       0.030998         0.8435

MULLIKEN ATOMIC CHARGES AND SPIN POPULATIONS
--------------------------------------------
   0 Au:   -0.103462   -0.098132
   1 Au:    0.051734    0.549066
   2 Au:    0.051728    0.549066
Sum of atomic charges         :    0.0000000

LOEWDIN ATOMIC CHARGES AND SPIN POPULATIONS
-------------------------------------------
   0 Au:   -0.191115    0.278927
   1 Au:    0.095558    0.360537
   2 Au:    0.095557    0.360537

  Mayer bond orders larger than 0.100000
B(  0-Au,  1-Au) :   0.6657 B(  0-Au,  2-Au) :   0.6657 B(  1-Au,  2-Au) :   0.1748

MP2 TOTAL ENERGY:     -406.821477842 Eh
Dispersion correction           -0.004943690
FINAL SINGLE POINT ENERGY      -406.826421532649

DIPOLE MOMENT
-------------
                                X             Y             Z
Electronic contribution:     -0.00000       0.00000       0.00000
Nuclear contribution   :      0.00000       0.00000       0.00000
                        -----------------------------------------
Total Dipole Moment    :     -0.00000       0.00000       0.00000
                        -----------------------------------------
Magnitude (a.u.)       :      0.00000
Magnitude (Debye)      :      0.00000

Rotational constants in cm-1:     0.000000     0.006594     0.006594
Rotational constants in MHz :     0.000000   197.695224   197.695224

                             ****ORCA TERMINATED NORMALLY****
TOTAL RUN TIME: 0 days 0 hours 0 minutes 11 seconds 44 msec
