                         Program Version 4.2.0 -  RELEASE  -
|  1> #
|  2> # Au03C1_LIN ri-B2PLYP-D3BJ/Def2-TZVPPD
|  3> #
|  4> ! rijk ri-b2plyp d3bj def2-tzvppd def2/jk def2-tzvppd/c grid4 nofinalgrid
|  5>
|  6> *xyz 1 1
|  7> Au       0.000000    0.000000    0.000000
|  8> Au       0.000000    0.000000    2.576864
|  9> Au       0.000000    0.000000   -2.576864
| 10> *
| 11>
| 12> %maxcore 5000
| 13>
| 14> %pal
| 15> nprocs = 24
| 16> end
| 17>
| 18>
| 19>                          ****END OF INPUT****

CARTESIAN COORDINATES (ANGSTROEM)
---------------------------------
  Au     0.000000    0.000000    0.000000
  Au     0.000000    0.000000    2.576864
  Au     0.000000    0.000000   -2.576864

 Total Charge           Charge          ....    1
 Multiplicity           Mult            ....    1
 Number of Electrons    NEL             ....   56
 Basis Dimension        Dim             ....  177

ORBITAL ENERGIES
----------------

  NO   OCC          E(Eh)            E(eV)
   0   2.0000      -4.580572      -124.6437
   1   2.0000      -4.580570      -124.6436
   2   2.0000      -4.539295      -123.5205
   3   2.0000      -2.705761       -73.6275
   4   2.0000      -2.704489       -73.5929
   5   2.0000      -2.699816       -73.4657
   6   2.0000      -2.699816       -73.4657
   7   2.0000      -2.699782       -73.4648
   8   2.0000      -2.699782       -73.4648
   9   2.0000      -2.664167       -72.4957
  10   2.0000      -2.652868       -72.1882
  11   2.0000      -2.652868       -72.1882
  12   2.0000      -0.645583       -17.5672
  13   2.0000      -0.604679       -16.4542
  14   2.0000      -0.604679       -16.4542
  15   2.0000      -0.585723       -15.9383
  16   2.0000      -0.582604       -15.8535
  17   2.0000      -0.582604       -15.8535
  18   2.0000      -0.575672       -15.6648
  19   2.0000      -0.575666       -15.6647
  20   2.0000      -0.574629       -15.6364
  21   2.0000      -0.574623       -15.6363
  22   2.0000      -0.524106       -14.2617
  23   2.0000      -0.524098       -14.2614
  24   2.0000      -0.514616       -14.0034
  25   2.0000      -0.514616       -14.0034
  26   2.0000      -0.504283       -13.7222
  27   2.0000      -0.452323       -12.3083
  28   0.0000      -0.331931        -9.0323
  29   0.0000      -0.214775        -5.8443
  30   0.0000      -0.154687        -4.2093
  31   0.0000      -0.154687        -4.2093
  32   0.0000      -0.123359        -3.3568

MULLIKEN ATOMIC CHARGES
-----------------------
   0 Au:   -0.037566
   1 Au:    0.518786
   2 Au:    0.518780
Sum of atomic charges:    1.0000000

LOEWDIN ATOMIC CHARGES
----------------------
   0 Au:    0.127444
   1 Au:    0.436278
   2 Au:    0.436278

  Mayer bond orders larger than 0.100000
B(  0-Au,  1-Au) :   0.6110 B(  0-Au,  2-Au) :   0.6110 B(  1-Au,  2-Au) :   0.2975

MP2 TOTAL ENERGY:     -406.508055041 Eh
Dispersion correction           -0.004903825
FINAL SINGLE POINT ENERGY      -406.512958865794

DIPOLE MOMENT
-------------
                                X             Y             Z
Electronic contribution:     -0.00000      -0.00000      -0.00000
Nuclear contribution   :      0.00000       0.00000       0.00000
                        -----------------------------------------
Total Dipole Moment    :     -0.00000      -0.00000      -0.00000
                        -----------------------------------------
Magnitude (a.u.)       :      0.00000
Magnitude (Debye)      :      0.00000

Rotational constants in cm-1:     0.000000     0.006445     0.006445
Rotational constants in MHz :     0.000000   193.202279   193.202279

                             ****ORCA TERMINATED NORMALLY****
TOTAL RUN TIME: 0 days 0 hours 0 minutes 7 seconds 626 msec
