                         Program Version 4.2.0 -  RELEASE  -
|  1> #
|  2> # Au04C2_H_F ri-B2PLYP-D3BJ/Def2-TZVPPD
|  3> #
|  4> ! rijk ri-b2plyp d3bj def2-tzvppd def2/jk def2-tzvppd/c grid4 nofinalgrid
|  5>
|  6> *xyz 2 2
|  7> Au       0.000000    1.567068   -0.568281
|  8> Au       1.357120   -0.783534   -0.568281
|  9> Au      -1.357120   -0.783534   -0.568281
| 10> Au       0.000000    0.000000    1.725922
| 11> H        0.000000    0.000000   -1.665144
| 12> *
| 13>
| 14> %maxcore 5000
| 15>
| 16> %pal
| 17> nprocs = 24
| 18> end
| 19>
| 20>
| 21>                          ****END OF INPUT****

CARTESIAN COORDINATES (ANGSTROEM)
---------------------------------
  Au     0.000000    1.567068   -0.568281
  Au     1.357120   -0.783534   -0.568281
  Au    -1.357120   -0.783534   -0.568281
  Au     0.000000    0.000000    1.725922
  H      0.000000    0.000000   -1.665144

 Total Charge           Charge          ....    2
 Multiplicity           Mult            ....    2
 Number of Electrons    NEL             ....   75
 Basis Dimension        Dim             ....  253

ORBITAL ENERGIES
----------------
                 SPIN UP ORBITALS
  NO   OCC          E(Eh)            E(eV)
   0   1.0000      -4.785702      -130.2256
   1   1.0000      -4.785331      -130.2155
   2   1.0000      -4.785331      -130.2155
   3   1.0000      -4.746287      -129.1530
   4   1.0000      -2.914947       -79.3197
   5   1.0000      -2.908807       -79.1527
   6   1.0000      -2.908806       -79.1526
   7   1.0000      -2.904359       -79.0316
   8   1.0000      -2.903454       -79.0070
   9   1.0000      -2.903454       -79.0070
  10   1.0000      -2.901312       -78.9487
  11   1.0000      -2.901309       -78.9486
  12   1.0000      -2.899331       -78.8948
  13   1.0000      -2.867096       -78.0176
  14   1.0000      -2.862017       -77.8794
  15   1.0000      -2.862016       -77.8794
  16   1.0000      -0.944173       -25.6923
  17   1.0000      -0.863207       -23.4891
  18   1.0000      -0.824983       -22.4489
  19   1.0000      -0.824981       -22.4489
  20   1.0000      -0.808132       -21.9904
  21   1.0000      -0.808132       -21.9904
  22   1.0000      -0.801245       -21.8030
  23   1.0000      -0.782791       -21.3008
  24   1.0000      -0.782791       -21.3008
  25   1.0000      -0.768073       -20.9003
  26   1.0000      -0.762635       -20.7524
  27   1.0000      -0.762631       -20.7522
  28   1.0000      -0.756646       -20.5894
  29   1.0000      -0.756053       -20.5732
  30   1.0000      -0.756052       -20.5732
  31   1.0000      -0.730413       -19.8756
  32   1.0000      -0.730409       -19.8755
  33   1.0000      -0.724280       -19.7087
  34   1.0000      -0.721883       -19.6434
  35   1.0000      -0.709753       -19.3133
  36   1.0000      -0.709751       -19.3133
  37   1.0000      -0.593628       -16.1535
  38   0.0000      -0.443883       -12.0787
  39   0.0000      -0.443882       -12.0786
  40   0.0000      -0.372979       -10.1493
  41   0.0000      -0.305216        -8.3054
  42   0.0000      -0.292440        -7.9577

                 SPIN DOWN ORBITALS
  NO   OCC          E(Eh)            E(eV)
   0   1.0000      -4.782285      -130.1326
   1   1.0000      -4.781936      -130.1231
   2   1.0000      -4.781936      -130.1231
   3   1.0000      -4.744261      -129.0979
   4   1.0000      -2.909087       -79.1603
   5   1.0000      -2.903914       -79.0195
   6   1.0000      -2.903913       -79.0195
   7   1.0000      -2.899489       -78.8991
   8   1.0000      -2.899488       -78.8991
   9   1.0000      -2.898571       -78.8741
  10   1.0000      -2.898466       -78.8713
  11   1.0000      -2.897826       -78.8538
  12   1.0000      -2.897825       -78.8538
  13   1.0000      -2.865960       -77.9867
  14   1.0000      -2.861569       -77.8672
  15   1.0000      -2.861568       -77.8672
  16   1.0000      -0.916982       -24.9524
  17   1.0000      -0.854326       -23.2474
  18   1.0000      -0.824169       -22.4268
  19   1.0000      -0.824168       -22.4267
  20   1.0000      -0.801953       -21.8223
  21   1.0000      -0.801952       -21.8222
  22   1.0000      -0.795497       -21.6466
  23   1.0000      -0.780089       -21.2273
  24   1.0000      -0.780089       -21.2273
  25   1.0000      -0.755870       -20.5683
  26   1.0000      -0.755867       -20.5682
  27   1.0000      -0.755604       -20.5610
  28   1.0000      -0.755179       -20.5495
  29   1.0000      -0.749460       -20.3938
  30   1.0000      -0.749454       -20.3937
  31   1.0000      -0.727115       -19.7858
  32   1.0000      -0.727111       -19.7857
  33   1.0000      -0.719856       -19.5883
  34   1.0000      -0.716246       -19.4900
  35   1.0000      -0.702547       -19.1173
  36   1.0000      -0.702545       -19.1172
  37   0.0000      -0.457339       -12.4448
  38   0.0000      -0.439146       -11.9498
  39   0.0000      -0.439145       -11.9497
  40   0.0000      -0.347961        -9.4685
  41   0.0000      -0.294328        -8.0091

MULLIKEN ATOMIC CHARGES AND SPIN POPULATIONS
--------------------------------------------
   0 Au:    0.516394    0.073251
   1 Au:    0.516314    0.073219
   2 Au:    0.516313    0.073220
   3 Au:    0.333148    0.483353
   4 H :    0.117830    0.296957
Sum of atomic charges         :    2.0000000

LOEWDIN ATOMIC CHARGES AND SPIN POPULATIONS
-------------------------------------------
   0 Au:    0.552626    0.186853
   1 Au:    0.552634    0.186857
   2 Au:    0.552634    0.186857
   3 Au:    0.460376    0.272084
   4 H :   -0.118270    0.167349

  Mayer bond orders larger than 0.100000
B(  0-Au,  1-Au) :   0.3834 B(  0-Au,  2-Au) :   0.3834 B(  0-Au,  3-Au) :   0.3670
B(  0-Au,  4-H ) :   0.2831 B(  1-Au,  2-Au) :   0.3834 B(  1-Au,  3-Au) :   0.3670
B(  1-Au,  4-H ) :   0.2832 B(  2-Au,  3-Au) :   0.3670 B(  2-Au,  4-H ) :   0.2832

MP2 TOTAL ENERGY:     -542.285789221 Eh
Dispersion correction           -0.014495529
FINAL SINGLE POINT ENERGY      -542.300284749987

DIPOLE MOMENT
-------------
                                X             Y             Z
Electronic contribution:      0.00000      -0.00000       2.42050
Nuclear contribution   :      0.00000       0.00000      -2.84605
                        -----------------------------------------
Total Dipole Moment    :      0.00000      -0.00000      -0.42555
                        -----------------------------------------
Magnitude (a.u.)       :      0.42555
Magnitude (Debye)      :      1.08166

Rotational constants in cm-1:     0.011617     0.011195     0.011195
Rotational constants in MHz :   348.279987   335.605170   335.605004

                             ****ORCA TERMINATED NORMALLY****
TOTAL RUN TIME: 0 days 0 hours 0 minutes 18 seconds 441 msec
