                         Program Version 4.2.0 -  RELEASE  -
|  1> #
|  2> # Au04C2 ri-B2PLYP-D3BJ/Def2-TZVPPD
|  3> #
|  4> ! rijk ri-b2plyp d3bj def2-tzvppd def2/jk def2-tzvppd/c grid4 nofinalgrid
|  5>
|  6> *xyz 2 1
|  7> Au      -0.000000   -0.000044    1.659420
|  8> Au      -1.354966    0.782292   -0.553161
|  9> Au       1.354966    0.782292   -0.553161
| 10> Au       0.000000   -1.564540   -0.553099
| 11> *
| 12>
| 13> %maxcore 5000
| 14>
| 15> %pal
| 16> nprocs = 24
| 17> end
| 18>
| 19>
| 20>                          ****END OF INPUT****

CARTESIAN COORDINATES (ANGSTROEM)
---------------------------------
  Au    -0.000000   -0.000044    1.659420
  Au    -1.354966    0.782292   -0.553161
  Au     1.354966    0.782292   -0.553161
  Au     0.000000   -1.564540   -0.553099

 Total Charge           Charge          ....    2
 Multiplicity           Mult            ....    1
 Number of Electrons    NEL             ....   74
 Basis Dimension        Dim             ....  236

ORBITAL ENERGIES
----------------

  NO   OCC          E(Eh)            E(eV)
   0   2.0000      -4.764475      -129.6480
   1   2.0000      -4.763983      -129.6346
   2   2.0000      -4.763982      -129.6345
   3   2.0000      -4.763980      -129.6345
   4   2.0000      -2.893385       -78.7330
   5   2.0000      -2.886763       -78.5528
   6   2.0000      -2.886762       -78.5528
   7   2.0000      -2.886760       -78.5527
   8   2.0000      -2.883079       -78.4526
   9   2.0000      -2.883077       -78.4525
  10   2.0000      -2.880663       -78.3868
  11   2.0000      -2.880659       -78.3867
  12   2.0000      -2.880657       -78.3867
  13   2.0000      -2.879722       -78.3612
  14   2.0000      -2.879721       -78.3612
  15   2.0000      -2.879718       -78.3611
  16   2.0000      -0.860296       -23.4099
  17   2.0000      -0.815300       -22.1855
  18   2.0000      -0.815297       -22.1854
  19   2.0000      -0.815293       -22.1853
  20   2.0000      -0.799286       -21.7497
  21   2.0000      -0.799282       -21.7496
  22   2.0000      -0.775909       -21.1136
  23   2.0000      -0.775906       -21.1135
  24   2.0000      -0.775903       -21.1134
  25   2.0000      -0.738985       -20.1088
  26   2.0000      -0.738983       -20.1088
  27   2.0000      -0.738982       -20.1087
  28   2.0000      -0.737588       -20.0708
  29   2.0000      -0.737585       -20.0707
  30   2.0000      -0.737584       -20.0707
  31   2.0000      -0.736369       -20.0376
  32   2.0000      -0.736366       -20.0375
  33   2.0000      -0.714360       -19.4387
  34   2.0000      -0.701721       -19.0948
  35   2.0000      -0.701720       -19.0948
  36   2.0000      -0.701713       -19.0946
  37   0.0000      -0.431490       -11.7414
  38   0.0000      -0.431488       -11.7414
  39   0.0000      -0.431484       -11.7413
  40   0.0000      -0.296033        -8.0555
  41   0.0000      -0.285533        -7.7697

MULLIKEN ATOMIC CHARGES
-----------------------
   0 Au:    0.500021
   1 Au:    0.499999
   2 Au:    0.500001
   3 Au:    0.499979
Sum of atomic charges:    2.0000000

LOEWDIN ATOMIC CHARGES
----------------------
   0 Au:    0.499998
   1 Au:    0.500007
   2 Au:    0.500007
   3 Au:    0.499989

  Mayer bond orders larger than 0.100000
B(  0-Au,  1-Au) :   0.4044 B(  0-Au,  2-Au) :   0.4044 B(  0-Au,  3-Au) :   0.4045
B(  1-Au,  2-Au) :   0.4044 B(  1-Au,  3-Au) :   0.4044 B(  2-Au,  3-Au) :   0.4044

MP2 TOTAL ENERGY:     -541.754322673 Eh
Dispersion correction           -0.013157547
FINAL SINGLE POINT ENERGY      -541.767480219687

DIPOLE MOMENT
-------------
                                X             Y             Z
Electronic contribution:      0.00000       0.00004      -0.00001
Nuclear contribution   :      0.00000       0.00000       0.00000
                        -----------------------------------------
Total Dipole Moment    :      0.00000       0.00004      -0.00001
                        -----------------------------------------
Magnitude (a.u.)       :      0.00005
Magnitude (Debye)      :      0.00012

Rotational constants in cm-1:     0.011655     0.011655     0.011654
Rotational constants in MHz :   349.408482   349.408217   349.388110

                             ****ORCA TERMINATED NORMALLY****
TOTAL RUN TIME: 0 days 0 hours 0 minutes 10 seconds 614 msec
