                         Program Version 4.2.0 -  RELEASE  -
|  1> #
|  2> # Au04C2_H_A ri-B2PLYP-D3BJ/Def2-TZVPPD
|  3> #
|  4> ! rijk ri-b2plyp d3bj def2-tzvppd def2/jk def2-tzvppd/c grid4 nofinalgrid
|  5>
|  6> *xyz 2 2
|  7> Au       0.000000    0.000000    1.750714
|  8> Au      -0.000000    1.549973   -0.597614
|  9> Au       1.342316   -0.774986   -0.597614
| 10> Au      -1.342316   -0.774986   -0.597614
| 11> H        0.000000    0.000000    3.328141
| 12> *
| 13>
| 14> %maxcore 5000
| 15>
| 16> %pal
| 17> nprocs = 24
| 18> end
| 19>
| 20>
| 21>                          ****END OF INPUT****

CARTESIAN COORDINATES (ANGSTROEM)
---------------------------------
  Au     0.000000    0.000000    1.750714
  Au    -0.000000    1.549973   -0.597614
  Au     1.342316   -0.774986   -0.597614
  Au    -1.342316   -0.774986   -0.597614
  H      0.000000    0.000000    3.328141

 Total Charge           Charge          ....    2
 Multiplicity           Mult            ....    2
 Number of Electrons    NEL             ....   75
 Basis Dimension        Dim             ....  253

ORBITAL ENERGIES
----------------
                 SPIN UP ORBITALS
  NO   OCC          E(Eh)            E(eV)
   0   1.0000      -4.805384      -130.7612
   1   1.0000      -4.764900      -129.6595
   2   1.0000      -4.764474      -129.6479
   3   1.0000      -4.764474      -129.6479
   4   1.0000      -2.934640       -79.8556
   5   1.0000      -2.914908       -79.3187
   6   1.0000      -2.914908       -79.3187
   7   1.0000      -2.892376       -78.7055
   8   1.0000      -2.886509       -78.5459
   9   1.0000      -2.886507       -78.5459
  10   1.0000      -2.882381       -78.4336
  11   1.0000      -2.882209       -78.4289
  12   1.0000      -2.882205       -78.4288
  13   1.0000      -2.880480       -78.3818
  14   1.0000      -2.880478       -78.3818
  15   1.0000      -2.879742       -78.3618
  16   1.0000      -0.904744       -24.6193
  17   1.0000      -0.831665       -22.6308
  18   1.0000      -0.823341       -22.4042
  19   1.0000      -0.823340       -22.4042
  20   1.0000      -0.805482       -21.9183
  21   1.0000      -0.805482       -21.9183
  22   1.0000      -0.801399       -21.8072
  23   1.0000      -0.787976       -21.4419
  24   1.0000      -0.787973       -21.4418
  25   1.0000      -0.777700       -21.1623
  26   1.0000      -0.757603       -20.6154
  27   1.0000      -0.757602       -20.6154
  28   1.0000      -0.737819       -20.0771
  29   1.0000      -0.737749       -20.0752
  30   1.0000      -0.737749       -20.0752
  31   1.0000      -0.735538       -20.0150
  32   1.0000      -0.735538       -20.0150
  33   1.0000      -0.730033       -19.8652
  34   1.0000      -0.718942       -19.5634
  35   1.0000      -0.718940       -19.5634
  36   1.0000      -0.698859       -19.0169
  37   1.0000      -0.674882       -18.3645
  38   0.0000      -0.432748       -11.7757
  39   0.0000      -0.432746       -11.7756
  40   0.0000      -0.377598       -10.2750
  41   0.0000      -0.291986        -7.9453
  42   0.0000      -0.291782        -7.9398

                 SPIN DOWN ORBITALS
  NO   OCC          E(Eh)            E(eV)
   0   1.0000      -4.794581      -130.4672
   1   1.0000      -4.764582      -129.6509
   2   1.0000      -4.764160      -129.6394
   3   1.0000      -4.764160      -129.6394
   4   1.0000      -2.914234       -79.3003
   5   1.0000      -2.907815       -79.1257
   6   1.0000      -2.907815       -79.1257
   7   1.0000      -2.891986       -78.6949
   8   1.0000      -2.886308       -78.5404
   9   1.0000      -2.886306       -78.5404
  10   1.0000      -2.881941       -78.4216
  11   1.0000      -2.881937       -78.4215
  12   1.0000      -2.881691       -78.4148
  13   1.0000      -2.880113       -78.3719
  14   1.0000      -2.880112       -78.3718
  15   1.0000      -2.879819       -78.3639
  16   1.0000      -0.875106       -23.8128
  17   1.0000      -0.824647       -22.4398
  18   1.0000      -0.820884       -22.3374
  19   1.0000      -0.820884       -22.3374
  20   1.0000      -0.802882       -21.8475
  21   1.0000      -0.802882       -21.8475
  22   1.0000      -0.782452       -21.2916
  23   1.0000      -0.779311       -21.2061
  24   1.0000      -0.779308       -21.2061
  25   1.0000      -0.775027       -21.0896
  26   1.0000      -0.752486       -20.4762
  27   1.0000      -0.752484       -20.4761
  28   1.0000      -0.737479       -20.0678
  29   1.0000      -0.737479       -20.0678
  30   1.0000      -0.737244       -20.0614
  31   1.0000      -0.735244       -20.0070
  32   1.0000      -0.735244       -20.0070
  33   1.0000      -0.715006       -19.4563
  34   1.0000      -0.715004       -19.4563
  35   1.0000      -0.706911       -19.2360
  36   1.0000      -0.699482       -19.0339
  37   0.0000      -0.485992       -13.2245
  38   0.0000      -0.431484       -11.7413
  39   0.0000      -0.431483       -11.7412
  40   0.0000      -0.356891        -9.7115
  41   0.0000      -0.289947        -7.8898

MULLIKEN ATOMIC CHARGES AND SPIN POPULATIONS
--------------------------------------------
   0 Au:    0.337217    0.522377
   1 Au:    0.488692    0.021928
   2 Au:    0.488581    0.021923
   3 Au:    0.488590    0.021924
   4 H :    0.196920    0.411848
Sum of atomic charges         :    2.0000000

LOEWDIN ATOMIC CHARGES AND SPIN POPULATIONS
-------------------------------------------
   0 Au:    0.578416    0.516606
   1 Au:    0.485413    0.034435
   2 Au:    0.485413    0.034434
   3 Au:    0.485413    0.034434
   4 H :   -0.034655    0.380091

  Mayer bond orders larger than 0.100000
B(  0-Au,  1-Au) :   0.3009 B(  0-Au,  2-Au) :   0.3009 B(  0-Au,  3-Au) :   0.3009
B(  0-Au,  4-H ) :   0.8056 B(  1-Au,  2-Au) :   0.4490 B(  1-Au,  3-Au) :   0.4490
B(  2-Au,  3-Au) :   0.4491

MP2 TOTAL ENERGY:     -542.304700939 Eh
Dispersion correction           -0.013796082
FINAL SINGLE POINT ENERGY      -542.318497021754

DIPOLE MOMENT
-------------
                                X             Y             Z
Electronic contribution:     -0.00000       0.00001      -5.56842
Nuclear contribution   :      0.00000      -0.00000       5.68843
                        -----------------------------------------
Total Dipole Moment    :     -0.00000       0.00001       0.12001
                        -----------------------------------------
Magnitude (a.u.)       :      0.12001
Magnitude (Debye)      :      0.30504

Rotational constants in cm-1:     0.011875     0.010977     0.010977
Rotational constants in MHz :   356.004762   329.094939   329.094872

                             ****ORCA TERMINATED NORMALLY****
TOTAL RUN TIME: 0 days 0 hours 0 minutes 18 seconds 623 msec
