                         Program Version 4.2.0 -  RELEASE  -
|  1> #
|  2> # Au04C2_NH3_F ri-B2PLYP-D3BJ/Def2-TZVPPD
|  3> #
|  4> ! rijk ri-b2plyp d3bj def2-tzvppd def2/jk def2-tzvppd/c grid4 nofinalgrid
|  5>
|  6> *xyz 2 1
|  7> Au       0.000000    1.548281   -0.453246
|  8> Au       1.340851   -0.774141   -0.453246
|  9> Au      -1.340851   -0.774141   -0.453246
| 10> Au       0.000000    0.000000    1.783664
| 11> N        0.000000    0.000000   -3.226055
| 12> H       -0.813891    0.469900   -3.635956
| 13> H        0.813891    0.469900   -3.635956
| 14> H       -0.000000   -0.939800   -3.635956
| 15> *
| 16>
| 17> %maxcore 5000
| 18>
| 19> %pal
| 20> nprocs = 24
| 21> end
| 22>
| 23>
| 24>                          ****END OF INPUT****

CARTESIAN COORDINATES (ANGSTROEM)
---------------------------------
  Au     0.000000    1.548281   -0.453246
  Au     1.340851   -0.774141   -0.453246
  Au    -1.340851   -0.774141   -0.453246
  Au     0.000000    0.000000    1.783664
  N      0.000000    0.000000   -3.226055
  H     -0.813891    0.469900   -3.635956
  H      0.813891    0.469900   -3.635956
  H     -0.000000   -0.939800   -3.635956

 Total Charge           Charge          ....    2
 Multiplicity           Mult            ....    1
 Number of Electrons    NEL             ....   84
 Basis Dimension        Dim             ....  324

ORBITAL ENERGIES
----------------

  NO   OCC          E(Eh)            E(eV)
   0   2.0000     -15.129521      -411.6952
   1   2.0000      -4.739350      -128.9643
   2   2.0000      -4.738906      -128.9522
   3   2.0000      -4.738905      -128.9522
   4   2.0000      -4.734512      -128.8326
   5   2.0000      -2.868129       -78.0458
   6   2.0000      -2.861764       -77.8726
   7   2.0000      -2.861763       -77.8725
   8   2.0000      -2.859308       -77.8057
   9   2.0000      -2.857619       -77.7598
  10   2.0000      -2.857615       -77.7596
  11   2.0000      -2.855148       -77.6925
  12   2.0000      -2.855034       -77.6894
  13   2.0000      -2.855033       -77.6894
  14   2.0000      -2.853752       -77.6545
  15   2.0000      -2.851116       -77.5828
  16   2.0000      -2.851115       -77.5828
  17   2.0000      -1.274155       -34.6715
  18   2.0000      -0.836568       -22.7642
  19   2.0000      -0.829286       -22.5660
  20   2.0000      -0.829286       -22.5660
  21   2.0000      -0.793896       -21.6030
  22   2.0000      -0.789832       -21.4924
  23   2.0000      -0.789830       -21.4924
  24   2.0000      -0.773878       -21.0583
  25   2.0000      -0.773878       -21.0583
  26   2.0000      -0.755076       -20.5467
  27   2.0000      -0.748775       -20.3752
  28   2.0000      -0.748772       -20.3751
  29   2.0000      -0.717250       -19.5174
  30   2.0000      -0.713547       -19.4166
  31   2.0000      -0.713171       -19.4064
  32   2.0000      -0.713170       -19.4064
  33   2.0000      -0.711983       -19.3740
  34   2.0000      -0.711981       -19.3740
  35   2.0000      -0.710305       -19.3284
  36   2.0000      -0.710301       -19.3283
  37   2.0000      -0.701271       -19.0825
  38   2.0000      -0.675536       -18.3823
  39   2.0000      -0.675534       -18.3822
  40   2.0000      -0.675513       -18.3816
  41   2.0000      -0.632919       -17.2226
  42   0.0000      -0.410220       -11.1626
  43   0.0000      -0.410218       -11.1626
  44   0.0000      -0.398901       -10.8547
  45   0.0000      -0.281245        -7.6531
  46   0.0000      -0.268720        -7.3122

MULLIKEN ATOMIC CHARGES
-----------------------
   0 Au:    0.484435
   1 Au:    0.484543
   2 Au:    0.484540
   3 Au:    0.418332
   4 N :   -0.440134
   5 H :    0.189455
   6 H :    0.189454
   7 H :    0.189376
Sum of atomic charges:    2.0000000

LOEWDIN ATOMIC CHARGES
----------------------
   0 Au:    0.474823
   1 Au:    0.474832
   2 Au:    0.474832
   3 Au:    0.476325
   4 N :    0.414265
   5 H :   -0.105024
   6 H :   -0.105024
   7 H :   -0.105029

  Mayer bond orders larger than 0.100000
B(  0-Au,  1-Au) :   0.3871 B(  0-Au,  2-Au) :   0.3871 B(  0-Au,  3-Au) :   0.4106
B(  1-Au,  2-Au) :   0.3871 B(  1-Au,  3-Au) :   0.4106 B(  2-Au,  3-Au) :   0.4106
B(  4-N ,  5-H ) :   1.0049 B(  4-N ,  6-H ) :   1.0049 B(  4-N ,  7-H ) :   1.0049

MP2 TOTAL ENERGY:     -598.331928539 Eh
Dispersion correction           -0.017339161
FINAL SINGLE POINT ENERGY      -598.349267699713

DIPOLE MOMENT
-------------
                                X             Y             Z
Electronic contribution:      0.00000      -0.00000      51.88349
Nuclear contribution   :      0.00000       0.00000     -53.58194
                        -----------------------------------------
Total Dipole Moment    :      0.00000       0.00000      -1.69846
                        -----------------------------------------
Magnitude (a.u.)       :      1.69846
Magnitude (Debye)      :      4.31713

Rotational constants in cm-1:     0.011879     0.010264     0.010264
Rotational constants in MHz :   356.111583   307.700803   307.700796

                             ****ORCA TERMINATED NORMALLY****
TOTAL RUN TIME: 0 days 0 hours 0 minutes 16 seconds 945 msec
