                         Program Version 4.2.0 -  RELEASE  -
|  1> #
|  2> # Au04C2_NH3_A ri-B2PLYP-D3BJ/Def2-TZVPPD
|  3> #
|  4> ! rijk ri-b2plyp d3bj def2-tzvppd def2/jk def2-tzvppd/c grid4 nofinalgrid
|  5>
|  6> *xyz 2 1
|  7> Au      -0.274490    1.572639   -0.000000
|  8> Au       1.635934   -0.418177    0.000000
|  9> Au      -0.639028   -0.815642    1.333593
| 10> Au      -0.639028   -0.815642   -1.333593
| 11> N       -0.639028    3.654013   -0.000000
| 12> H       -0.235750    4.112347    0.824759
| 13> H       -0.235750    4.112347   -0.824759
| 14> H       -1.642949    3.866239   -0.000000
| 15> *
| 16>
| 17> %maxcore 5000
| 18>
| 19> %pal
| 20> nprocs = 24
| 21> end
| 22>
| 23>
| 24>                          ****END OF INPUT****

CARTESIAN COORDINATES (ANGSTROEM)
---------------------------------
  Au    -0.274490    1.572639   -0.000000
  Au     1.635934   -0.418177    0.000000
  Au    -0.639028   -0.815642    1.333593
  Au    -0.639028   -0.815642   -1.333593
  N     -0.639028    3.654013   -0.000000
  H     -0.235750    4.112347    0.824759
  H     -0.235750    4.112347   -0.824759
  H     -1.642949    3.866239   -0.000000

 Total Charge           Charge          ....    2
 Multiplicity           Mult            ....    1
 Number of Electrons    NEL             ....   84
 Basis Dimension        Dim             ....  324

ORBITAL ENERGIES
----------------

  NO   OCC          E(Eh)            E(eV)
   0   2.0000     -15.194074      -413.4518
   1   2.0000      -4.729622      -128.6996
   2   2.0000      -4.729155      -128.6868
   3   2.0000      -4.729144      -128.6866
   4   2.0000      -4.723192      -128.5246
   5   2.0000      -2.858295       -77.7782
   6   2.0000      -2.851616       -77.5964
   7   2.0000      -2.851616       -77.5964
   8   2.0000      -2.849004       -77.5253
   9   2.0000      -2.847044       -77.4720
  10   2.0000      -2.847037       -77.4718
  11   2.0000      -2.845074       -77.4184
  12   2.0000      -2.845068       -77.4182
  13   2.0000      -2.844703       -77.4083
  14   2.0000      -2.843595       -77.3781
  15   2.0000      -2.836313       -77.1800
  16   2.0000      -2.836308       -77.1799
  17   2.0000      -1.331121       -36.2216
  18   2.0000      -0.887435       -24.1483
  19   2.0000      -0.887425       -24.1481
  20   2.0000      -0.841405       -22.8958
  21   2.0000      -0.795687       -21.6517
  22   2.0000      -0.776490       -21.1294
  23   2.0000      -0.776450       -21.1283
  24   2.0000      -0.764856       -20.8128
  25   2.0000      -0.759804       -20.6753
  26   2.0000      -0.759803       -20.6753
  27   2.0000      -0.742782       -20.2121
  28   2.0000      -0.735410       -20.0115
  29   2.0000      -0.735409       -20.0115
  30   2.0000      -0.702314       -19.1109
  31   2.0000      -0.702297       -19.1105
  32   2.0000      -0.702200       -19.1078
  33   2.0000      -0.700208       -19.0536
  34   2.0000      -0.700202       -19.0535
  35   2.0000      -0.696287       -18.9469
  36   2.0000      -0.696280       -18.9467
  37   2.0000      -0.681982       -18.5577
  38   2.0000      -0.664265       -18.0756
  39   2.0000      -0.664246       -18.0751
  40   2.0000      -0.663993       -18.0682
  41   2.0000      -0.646963       -17.6048
  42   0.0000      -0.400524       -10.8988
  43   0.0000      -0.400508       -10.8984
  44   0.0000      -0.355757        -9.6806
  45   0.0000      -0.266510        -7.2521
  46   0.0000      -0.257425        -7.0049

MULLIKEN ATOMIC CHARGES
-----------------------
   0 Au:    0.278159
   1 Au:    0.439610
   2 Au:    0.439926
   3 Au:    0.439929
   4 N :   -0.352335
   5 H :    0.251557
   6 H :    0.251555
   7 H :    0.251599
Sum of atomic charges:    2.0000000

LOEWDIN ATOMIC CHARGES
----------------------
   0 Au:    0.416536
   1 Au:    0.459184
   2 Au:    0.459244
   3 Au:    0.459244
   4 N :    0.393396
   5 H :   -0.062535
   6 H :   -0.062535
   7 H :   -0.062533

  Mayer bond orders larger than 0.100000
B(  0-Au,  1-Au) :   0.3058 B(  0-Au,  2-Au) :   0.3055 B(  0-Au,  3-Au) :   0.3055
B(  0-Au,  4-N ) :   0.6449 B(  1-Au,  2-Au) :   0.4585 B(  1-Au,  3-Au) :   0.4585
B(  2-Au,  3-Au) :   0.4582 B(  4-N ,  5-H ) :   0.9553 B(  4-N ,  6-H ) :   0.9553
B(  4-N ,  7-H ) :   0.9553

MP2 TOTAL ENERGY:     -598.401618675 Eh
Dispersion correction           -0.016176033
FINAL SINGLE POINT ENERGY      -598.417794707906

DIPOLE MOMENT
-------------
                                X             Y             Z
Electronic contribution:     10.10794     -57.80083       0.00000
Nuclear contribution   :    -10.53350      60.23199       0.00000
                        -----------------------------------------
Total Dipole Moment    :     -0.42556       2.43116       0.00000
                        -----------------------------------------
Magnitude (a.u.)       :      2.46812
Magnitude (Debye)      :      6.27347

Rotational constants in cm-1:     0.012010     0.009744     0.009743
Rotational constants in MHz :   360.039216   292.121240   292.077350

                             ****ORCA TERMINATED NORMALLY****
TOTAL RUN TIME: 0 days 0 hours 0 minutes 16 seconds 60 msec
