                         Program Version 4.2.0 -  RELEASE  -
|  1> #
|  2> # Au04C2_H_E ri-B2PLYP-D3BJ/Def2-TZVPPD
|  3> #
|  4> ! rijk ri-b2plyp d3bj def2-tzvppd def2/jk def2-tzvppd/c grid4 nofinalgrid
|  5>
|  6> *xyz 2 2
|  7> Au       0.000000    1.337591    1.056475
|  8> Au      -0.000000   -1.337591    1.056475
|  9> Au      -1.306954    0.000000   -1.070288
| 10> Au       1.306954   -0.000000   -1.070288
| 11> H       -0.000000    0.000000    2.182427
| 12> *
| 13>
| 14> %maxcore 5000
| 15>
| 16> %pal
| 17> nprocs = 24
| 18> end
| 19>
| 20>
| 21>                          ****END OF INPUT****

CARTESIAN COORDINATES (ANGSTROEM)
---------------------------------
  Au     0.000000    1.337591    1.056475
  Au    -0.000000   -1.337591    1.056475
  Au    -1.306954    0.000000   -1.070288
  Au     1.306954   -0.000000   -1.070288
  H     -0.000000    0.000000    2.182427

 Total Charge           Charge          ....    2
 Multiplicity           Mult            ....    2
 Number of Electrons    NEL             ....   75
 Basis Dimension        Dim             ....  253

ORBITAL ENERGIES
----------------
                 SPIN UP ORBITALS
  NO   OCC          E(Eh)            E(eV)
   0   1.0000      -4.791388      -130.3803
   1   1.0000      -4.791081      -130.3719
   2   1.0000      -4.758840      -129.4946
   3   1.0000      -4.758417      -129.4831
   4   1.0000      -2.920386       -79.4677
   5   1.0000      -2.914701       -79.3131
   6   1.0000      -2.910954       -79.2111
   7   1.0000      -2.908711       -79.1501
   8   1.0000      -2.903589       -79.0107
   9   1.0000      -2.902948       -78.9932
  10   1.0000      -2.884621       -78.4945
  11   1.0000      -2.878351       -78.3239
  12   1.0000      -2.877137       -78.2909
  13   1.0000      -2.875141       -78.2366
  14   1.0000      -2.874527       -78.2199
  15   1.0000      -2.873752       -78.1988
  16   1.0000      -0.923374       -25.1263
  17   1.0000      -0.861722       -23.4486
  18   1.0000      -0.821790       -22.3621
  19   1.0000      -0.820678       -22.3318
  20   1.0000      -0.815094       -22.1798
  21   1.0000      -0.801351       -21.8059
  22   1.0000      -0.796197       -21.6656
  23   1.0000      -0.793673       -21.5969
  24   1.0000      -0.779469       -21.2104
  25   1.0000      -0.764578       -20.8052
  26   1.0000      -0.762064       -20.7368
  27   1.0000      -0.758451       -20.6385
  28   1.0000      -0.755743       -20.5648
  29   1.0000      -0.753404       -20.5012
  30   1.0000      -0.740906       -20.1611
  31   1.0000      -0.732369       -19.9288
  32   1.0000      -0.727997       -19.8098
  33   1.0000      -0.727985       -19.8095
  34   1.0000      -0.726330       -19.7645
  35   1.0000      -0.716219       -19.4893
  36   1.0000      -0.703069       -19.1315
  37   1.0000      -0.616940       -16.7878
  38   0.0000      -0.443536       -12.0692
  39   0.0000      -0.428761       -11.6672
  40   0.0000      -0.369082       -10.0432
  41   0.0000      -0.305743        -8.3197
  42   0.0000      -0.304487        -8.2855

                 SPIN DOWN ORBITALS
  NO   OCC          E(Eh)            E(eV)
   0   1.0000      -4.785302      -130.2147
   1   1.0000      -4.785031      -130.2073
   2   1.0000      -4.757283      -129.4523
   3   1.0000      -4.756872      -129.4411
   4   1.0000      -2.909368       -79.1679
   5   1.0000      -2.902604       -78.9839
   6   1.0000      -2.902361       -78.9772
   7   1.0000      -2.901430       -78.9519
   8   1.0000      -2.901011       -78.9405
   9   1.0000      -2.900413       -78.9243
  10   1.0000      -2.883636       -78.4677
  11   1.0000      -2.876642       -78.2774
  12   1.0000      -2.874997       -78.2327
  13   1.0000      -2.874726       -78.2253
  14   1.0000      -2.874209       -78.2112
  15   1.0000      -2.873011       -78.1786
  16   1.0000      -0.891335       -24.2545
  17   1.0000      -0.853478       -23.2243
  18   1.0000      -0.817480       -22.2448
  19   1.0000      -0.816833       -22.2272
  20   1.0000      -0.809499       -22.0276
  21   1.0000      -0.797187       -21.6926
  22   1.0000      -0.792332       -21.5605
  23   1.0000      -0.789734       -21.4897
  24   1.0000      -0.769409       -20.9367
  25   1.0000      -0.756521       -20.5860
  26   1.0000      -0.755887       -20.5687
  27   1.0000      -0.755243       -20.5512
  28   1.0000      -0.747763       -20.3477
  29   1.0000      -0.746937       -20.3252
  30   1.0000      -0.736846       -20.0506
  31   1.0000      -0.727282       -19.7903
  32   1.0000      -0.726573       -19.7710
  33   1.0000      -0.720978       -19.6188
  34   1.0000      -0.712337       -19.3837
  35   1.0000      -0.710924       -19.3452
  36   1.0000      -0.697504       -18.9800
  37   0.0000      -0.477743       -13.0001
  38   0.0000      -0.438115       -11.9217
  39   0.0000      -0.422788       -11.5046
  40   0.0000      -0.345666        -9.4061
  41   0.0000      -0.298513        -8.1229

MULLIKEN ATOMIC CHARGES AND SPIN POPULATIONS
--------------------------------------------
   0 Au:    0.503832    0.124322
   1 Au:    0.503827    0.124321
   2 Au:    0.442032    0.232553
   3 Au:    0.442036    0.232553
   4 H :    0.108273    0.286252
Sum of atomic charges         :    2.0000000

LOEWDIN ATOMIC CHARGES AND SPIN POPULATIONS
-------------------------------------------
   0 Au:    0.575571    0.251314
   1 Au:    0.575571    0.251314
   2 Au:    0.483555    0.161765
   3 Au:    0.483556    0.161765
   4 H :   -0.118252    0.173842

  Mayer bond orders larger than 0.100000
B(  0-Au,  1-Au) :   0.4960 B(  0-Au,  2-Au) :   0.3019 B(  0-Au,  3-Au) :   0.3019
B(  0-Au,  4-H ) :   0.4579 B(  1-Au,  2-Au) :   0.3019 B(  1-Au,  3-Au) :   0.3019
B(  1-Au,  4-H ) :   0.4579 B(  2-Au,  3-Au) :   0.5850

MP2 TOTAL ENERGY:     -542.304423084 Eh
Dispersion correction           -0.014271878
FINAL SINGLE POINT ENERGY      -542.318694961881

DIPOLE MOMENT
-------------
                                X             Y             Z
Electronic contribution:      0.00000       0.00000      -3.53606
Nuclear contribution   :      0.00000       0.00000       3.73018
                        -----------------------------------------
Total Dipole Moment    :      0.00000       0.00000       0.19413
                        -----------------------------------------
Magnitude (a.u.)       :      0.19413
Magnitude (Debye)      :      0.49343

Rotational constants in cm-1:     0.012236     0.010747     0.010533
Rotational constants in MHz :   366.830155   322.181581   315.756842

                             ****ORCA TERMINATED NORMALLY****
TOTAL RUN TIME: 0 days 0 hours 0 minutes 15 seconds 931 msec
