                         Program Version 4.2.0 -  RELEASE  -
|  1> #
|  2> # Au04N0 ri-B2PLYP-D3BJ/Def2-TZVPPD
|  3> #
|  4> ! rijk ri-b2plyp d3bj def2-tzvppd def2/jk def2-tzvppd/c grid4 nofinalgrid
|  5>
|  6> *xyz 0 1
|  7> Au      -0.788661   -0.016684    2.209526
|  8> Au      -1.223332   -0.011467   -0.436740
|  9> Au       0.788385    0.016579   -2.209564
| 10> Au       1.223608    0.011572    0.436778
| 11> *
| 12>
| 13> %maxcore 5000
| 14>
| 15> %pal
| 16> nprocs = 24
| 17> end
| 18>
| 19>
| 20>                          ****END OF INPUT****

CARTESIAN COORDINATES (ANGSTROEM)
---------------------------------
  Au    -0.788661   -0.016684    2.209526
  Au    -1.223332   -0.011467   -0.436740
  Au     0.788385    0.016579   -2.209564
  Au     1.223608    0.011572    0.436778

 Total Charge           Charge          ....    0
 Multiplicity           Mult            ....    1
 Number of Electrons    NEL             ....   76
 Basis Dimension        Dim             ....  236

ORBITAL ENERGIES
----------------

  NO   OCC          E(Eh)            E(eV)
   0   2.0000      -4.392172      -119.5171
   1   2.0000      -4.391710      -119.5045
   2   2.0000      -4.365495      -118.7912
   3   2.0000      -4.365486      -118.7909
   4   2.0000      -2.518636       -68.5356
   5   2.0000      -2.511810       -68.3498
   6   2.0000      -2.510480       -68.3136
   7   2.0000      -2.509011       -68.2736
   8   2.0000      -2.507784       -68.2403
   9   2.0000      -2.507023       -68.2196
  10   2.0000      -2.485332       -67.6293
  11   2.0000      -2.484661       -67.6111
  12   2.0000      -2.482336       -67.5478
  13   2.0000      -2.482053       -67.5401
  14   2.0000      -2.478772       -67.4508
  15   2.0000      -2.478750       -67.4502
  16   2.0000      -0.460996       -12.5443
  17   2.0000      -0.458532       -12.4773
  18   2.0000      -0.428762       -11.6672
  19   2.0000      -0.425255       -11.5718
  20   2.0000      -0.423013       -11.5108
  21   2.0000      -0.411925       -11.2090
  22   2.0000      -0.393848       -10.7172
  23   2.0000      -0.393448       -10.7063
  24   2.0000      -0.365670        -9.9504
  25   2.0000      -0.363041        -9.8789
  26   2.0000      -0.361623        -9.8403
  27   2.0000      -0.356661        -9.7053
  28   2.0000      -0.354190        -9.6380
  29   2.0000      -0.352473        -9.5913
  30   2.0000      -0.344701        -9.3798
  31   2.0000      -0.339920        -9.2497
  32   2.0000      -0.336514        -9.1570
  33   2.0000      -0.335983        -9.1426
  34   2.0000      -0.333408        -9.0725
  35   2.0000      -0.326827        -8.8934
  36   2.0000      -0.306943        -8.3523
  37   2.0000      -0.228288        -6.2120
  38   0.0000      -0.094882        -2.5819
  39   0.0000      -0.054567        -1.4848
  40   0.0000      -0.017141        -0.4664
  41   0.0000       0.012167         0.3311
  42   0.0000       0.015599         0.4245

MULLIKEN ATOMIC CHARGES
-----------------------
   0 Au:   -0.163774
   1 Au:    0.163724
   2 Au:   -0.163757
   3 Au:    0.163807
Sum of atomic charges:   -0.0000000

LOEWDIN ATOMIC CHARGES
----------------------
   0 Au:    0.081291
   1 Au:   -0.081386
   2 Au:    0.081311
   3 Au:   -0.081216

  Mayer bond orders larger than 0.100000
B(  0-Au,  1-Au) :   0.5319 B(  0-Au,  2-Au) :   0.1890 B(  0-Au,  3-Au) :   0.5318
B(  1-Au,  2-Au) :   0.5320 B(  1-Au,  3-Au) :   0.4422 B(  2-Au,  3-Au) :   0.5318

MP2 TOTAL ENERGY:     -542.484498590 Eh
Dispersion correction           -0.011774011
FINAL SINGLE POINT ENERGY      -542.496272600236

DIPOLE MOMENT
-------------
                                X             Y             Z
Electronic contribution:      0.00039       0.00001       0.00000
Nuclear contribution   :     -0.00000      -0.00000       0.00000
                        -----------------------------------------
Total Dipole Moment    :      0.00039       0.00001       0.00000
                        -----------------------------------------
Magnitude (a.u.)       :      0.00039
Magnitude (Debye)      :      0.00099

Rotational constants in cm-1:     0.025355     0.007775     0.005950
Rotational constants in MHz :   760.119680   233.080651   178.382130

                             ****ORCA TERMINATED NORMALLY****
TOTAL RUN TIME: 0 days 0 hours 0 minutes 11 seconds 593 msec
