                         Program Version 4.2.0 -  RELEASE  -
|  1> #
|  2> # Cu01N0_H ri-B2PLYP-D3BJ/Def2-TZVPPD
|  3> #
|  4> ! rijk ri-b2plyp d3bj def2-tzvppd def2/jk def2-tzvppd/c grid4 nofinalgrid
|  5>
|  6> *xyz 0 1
|  7> Cu       0.000000    0.000000    0.048513
|  8> H        0.000000    0.000000   -1.406870
|  9> *
| 10>
| 11> %maxcore 5000
| 12>
| 13> %pal
| 14> nprocs = 24
| 15> end
| 16>
| 17>
| 18>                          ****END OF INPUT****

CARTESIAN COORDINATES (ANGSTROEM)
---------------------------------
  Cu     0.000000    0.000000    0.048513
  H      0.000000    0.000000   -1.406870

 Total Charge           Charge          ....    0
 Multiplicity           Mult            ....    1
 Number of Electrons    NEL             ....   30
 Basis Dimension        Dim             ....   84

ORBITAL ENERGIES
----------------

  NO   OCC          E(Eh)            E(eV)
   0   2.0000    -325.439977     -8855.6720
   1   2.0000     -39.652652     -1079.0035
   2   2.0000     -34.688149      -943.9125
   3   2.0000     -34.687408      -943.8924
   4   2.0000     -34.687408      -943.8924
   5   2.0000      -4.600279      -125.1800
   6   2.0000      -3.021636       -82.2229
   7   2.0000      -3.014952       -82.0410
   8   2.0000      -3.014952       -82.0410
   9   2.0000      -0.405047       -11.0219
  10   2.0000      -0.376019       -10.2320
  11   2.0000      -0.376019       -10.2320
  12   2.0000      -0.370449       -10.0804
  13   2.0000      -0.370449       -10.0804
  14   2.0000      -0.282693        -7.6925
  15   0.0000      -0.039186        -1.0663
  16   0.0000       0.020142         0.5481
  17   0.0000       0.020142         0.5481
  18   0.0000       0.086660         2.3581
  19   0.0000       0.102360         2.7853

MULLIKEN ATOMIC CHARGES
-----------------------
   0 Cu:   -0.121298
   1 H :    0.121298
Sum of atomic charges:   -0.0000000

LOEWDIN ATOMIC CHARGES
----------------------
   0 Cu:    0.260098
   1 H :   -0.260098

  Mayer bond orders larger than 0.100000
B(  0-Cu,  1-H ) :   0.9877

MP2 TOTAL ENERGY:    -1640.915025844 Eh
Dispersion correction           -0.000295176
FINAL SINGLE POINT ENERGY     -1640.915321020391

DIPOLE MOMENT
-------------
                                X             Y             Z
Electronic contribution:      0.00000       0.00000       2.74400
Nuclear contribution   :      0.00000       0.00000      -1.46200
                        -----------------------------------------
Total Dipole Moment    :      0.00000       0.00000       1.28200
                        -----------------------------------------
Magnitude (a.u.)       :      1.28200
Magnitude (Debye)      :      3.25859

Rotational constants in cm-1:     0.000000     8.020774     8.020774
Rotational constants in MHz :     0.000000 240456.758928 240456.758928

                             ****ORCA TERMINATED NORMALLY****
TOTAL RUN TIME: 0 days 0 hours 0 minutes 3 seconds 706 msec
