                         Program Version 4.2.0 -  RELEASE  -
|  1> #
|  2> # Cu01N0_F ri-B2PLYP-D3BJ/Def2-TZVPPD
|  3> #
|  4> ! rijk ri-b2plyp d3bj def2-tzvppd def2/jk def2-tzvppd/c grid4 nofinalgrid
|  5>
|  6> *xyz 0 1
|  7> Cu       0.000000    0.000000    0.412716
|  8> F        0.000000    0.000000   -1.329863
|  9> *
| 10>
| 11> %maxcore 5000
| 12>
| 13> %pal
| 14> nprocs = 24
| 15> end
| 16>
| 17>
| 18>                          ****END OF INPUT****

CARTESIAN COORDINATES (ANGSTROEM)
---------------------------------
  Cu     0.000000    0.000000    0.412716
  F      0.000000    0.000000   -1.329863

 Total Charge           Charge          ....    0
 Multiplicity           Mult            ....    1
 Number of Electrons    NEL             ....   38
 Basis Dimension        Dim             ....  107

ORBITAL ENERGIES
----------------

  NO   OCC          E(Eh)            E(eV)
   0   2.0000    -325.455889     -8856.1050
   1   2.0000     -39.665711     -1079.3589
   2   2.0000     -34.702194      -944.2947
   3   2.0000     -34.702194      -944.2947
   4   2.0000     -34.699464      -944.2204
   5   2.0000     -25.231003      -686.5705
   6   2.0000      -4.619125      -125.6928
   7   2.0000      -3.039324       -82.7042
   8   2.0000      -3.036801       -82.6355
   9   2.0000      -3.036801       -82.6355
  10   2.0000      -1.199980       -32.6531
  11   2.0000      -0.461857       -12.5678
  12   2.0000      -0.436253       -11.8710
  13   2.0000      -0.436253       -11.8710
  14   2.0000      -0.394163       -10.7257
  15   2.0000      -0.394163       -10.7257
  16   2.0000      -0.356272        -9.6946
  17   2.0000      -0.356272        -9.6946
  18   2.0000      -0.334112        -9.0916
  19   0.0000      -0.072378        -1.9695
  20   0.0000       0.022709         0.6180
  21   0.0000       0.022709         0.6180
  22   0.0000       0.057677         1.5695
  23   0.0000       0.100354         2.7308

MULLIKEN ATOMIC CHARGES
-----------------------
   0 Cu:    0.751249
   1 F :   -0.751249
Sum of atomic charges:   -0.0000000

LOEWDIN ATOMIC CHARGES
----------------------
   0 Cu:    0.577524
   1 F :   -0.577524

  Mayer bond orders larger than 0.100000
B(  0-Cu,  1-F ) :   0.5391

MP2 TOTAL ENERGY:    -1740.189588710 Eh
Dispersion correction           -0.000357672
FINAL SINGLE POINT ENERGY     -1740.189946382634

DIPOLE MOMENT
-------------
                                X             Y             Z
Electronic contribution:      0.00000       0.00000       3.07267
Nuclear contribution   :      0.00000       0.00000      -0.83805
                        -----------------------------------------
Total Dipole Moment    :      0.00000       0.00000       2.23462
                        -----------------------------------------
Magnitude (a.u.)       :      2.23462
Magnitude (Debye)      :      5.67995

Rotational constants in cm-1:     0.000000     0.379573     0.379573
Rotational constants in MHz :     0.000000 11379.305818 11379.305818

                             ****ORCA TERMINATED NORMALLY****
TOTAL RUN TIME: 0 days 0 hours 0 minutes 4 seconds 174 msec
