                         Program Version 4.2.0 -  RELEASE  -
|  1> #
|  2> # Cu02N0 ri-B2PLYP-D3BJ/Def2-TZVPPD
|  3> #
|  4> ! rijk ri-b2plyp d3bj def2-tzvppd def2/jk def2-tzvppd/c grid4 nofinalgrid
|  5>
|  6> *xyz 0 1
|  7> Cu       0.000000    0.000000    1.107490
|  8> Cu       0.000000    0.000000   -1.107490
|  9> *
| 10>
| 11> %maxcore 5000
| 12>
| 13> %pal
| 14> nprocs = 24
| 15> end
| 16>
| 17>
| 18>                          ****END OF INPUT****

CARTESIAN COORDINATES (ANGSTROEM)
---------------------------------
  Cu     0.000000    0.000000    1.107490
  Cu     0.000000    0.000000   -1.107490

 Total Charge           Charge          ....    0
 Multiplicity           Mult            ....    1
 Number of Electrons    NEL             ....   58
 Basis Dimension        Dim             ....  134

ORBITAL ENERGIES
----------------

  NO   OCC          E(Eh)            E(eV)
   0   2.0000    -325.408728     -8854.8216
   1   2.0000    -325.408720     -8854.8214
   2   2.0000     -39.618479     -1078.0736
   3   2.0000     -39.618449     -1078.0728
   4   2.0000     -34.654020      -942.9838
   5   2.0000     -34.654011      -942.9836
   6   2.0000     -34.653776      -942.9772
   7   2.0000     -34.653776      -942.9772
   8   2.0000     -34.653769      -942.9770
   9   2.0000     -34.653769      -942.9770
  10   2.0000      -4.568456      -124.3140
  11   2.0000      -4.567692      -124.2932
  12   2.0000      -2.991279       -81.3968
  13   2.0000      -2.984980       -81.2254
  14   2.0000      -2.984980       -81.2254
  15   2.0000      -2.984899       -81.2232
  16   2.0000      -2.984443       -81.2108
  17   2.0000      -2.984443       -81.2108
  18   2.0000      -0.375086       -10.2066
  19   2.0000      -0.362820        -9.8728
  20   2.0000      -0.362820        -9.8728
  21   2.0000      -0.345418        -9.3993
  22   2.0000      -0.345414        -9.3992
  23   2.0000      -0.337516        -9.1843
  24   2.0000      -0.337512        -9.1842
  25   2.0000      -0.325182        -8.8486
  26   2.0000      -0.325182        -8.8486
  27   2.0000      -0.318798        -8.6749
  28   2.0000      -0.223702        -6.0872
  29   0.0000      -0.041728        -1.1355
  30   0.0000       0.007307         0.1988
  31   0.0000       0.007307         0.1988
  32   0.0000       0.031430         0.8553
  33   0.0000       0.064050         1.7429

MULLIKEN ATOMIC CHARGES
-----------------------
   0 Cu:    0.000008
   1 Cu:   -0.000008
Sum of atomic charges:   -0.0000000

LOEWDIN ATOMIC CHARGES
----------------------
   0 Cu:    0.000000
   1 Cu:   -0.000000

  Mayer bond orders larger than 0.100000
B(  0-Cu,  1-Cu) :   1.0493

MP2 TOTAL ENERGY:    -3280.700424498 Eh
Dispersion correction           -0.001418421
FINAL SINGLE POINT ENERGY     -3280.701842919456

DIPOLE MOMENT
-------------
                                X             Y             Z
Electronic contribution:      0.00000      -0.00000      -0.00000
Nuclear contribution   :      0.00000       0.00000       0.00000
                        -----------------------------------------
Total Dipole Moment    :      0.00000      -0.00000      -0.00000
                        -----------------------------------------
Magnitude (a.u.)       :      0.00000
Magnitude (Debye)      :      0.00000

Rotational constants in cm-1:     0.000000     0.108136     0.108136
Rotational constants in MHz :     0.000000  3241.846344  3241.846344

                             ****ORCA TERMINATED NORMALLY****
TOTAL RUN TIME: 0 days 0 hours 0 minutes 5 seconds 479 msec
