                         Program Version 4.2.0 -  RELEASE  -
|  1> #
|  2> # Cu03N0_D3H ri-B2PLYP-D3BJ/Def2-TZVPPD
|  3> #
|  4> ! rijk ri-b2plyp d3bj def2-tzvppd def2/jk def2-tzvppd/c grid4 nofinalgrid
|  5>
|  6> *xyz 0 2
|  7> Cu       0.000000    1.346828   -0.000000
|  8> Cu       1.166387   -0.673414   -0.000000
|  9> Cu      -1.166387   -0.673414   -0.000000
| 10> *
| 11>
| 12> %maxcore 5000
| 13>
| 14> %pal
| 15> nprocs = 24
| 16> end
| 17>
| 18>
| 19>                          ****END OF INPUT****

CARTESIAN COORDINATES (ANGSTROEM)
---------------------------------
  Cu     0.000000    1.346828   -0.000000
  Cu     1.166387   -0.673414   -0.000000
  Cu    -1.166387   -0.673414   -0.000000

 Total Charge           Charge          ....    0
 Multiplicity           Mult            ....    2
 Number of Electrons    NEL             ....   87
 Basis Dimension        Dim             ....  201

ORBITAL ENERGIES
----------------
                 SPIN UP ORBITALS
  NO   OCC          E(Eh)            E(eV)
   0   1.0000    -325.431144     -8855.4316
   1   1.0000    -325.431139     -8855.4315
   2   1.0000    -325.413939     -8854.9635
   3   1.0000     -39.641057     -1078.6880
   4   1.0000     -39.641035     -1078.6874
   5   1.0000     -39.625980     -1078.2777
   6   1.0000     -34.676745      -943.6022
   7   1.0000     -34.676739      -943.6020
   8   1.0000     -34.676424      -943.5935
   9   1.0000     -34.676414      -943.5932
  10   1.0000     -34.676240      -943.5885
  11   1.0000     -34.676234      -943.5883
  12   1.0000     -34.661275      -943.1812
  13   1.0000     -34.661099      -943.1765
  14   1.0000     -34.659879      -943.1433
  15   1.0000      -4.590825      -124.9227
  16   1.0000      -4.590412      -124.9115
  17   1.0000      -4.574115      -124.4680
  18   1.0000      -3.012226       -81.9668
  19   1.0000      -3.008612       -81.8685
  20   1.0000      -3.008378       -81.8621
  21   1.0000      -3.007592       -81.8407
  22   1.0000      -3.007185       -81.8297
  23   1.0000      -3.006873       -81.8212
  24   1.0000      -2.991407       -81.4003
  25   1.0000      -2.991046       -81.3905
  26   1.0000      -2.988261       -81.3147
  27   1.0000      -0.404381       -11.0038
  28   1.0000      -0.389029       -10.5860
  29   1.0000      -0.386182       -10.5085
  30   1.0000      -0.381319       -10.3762
  31   1.0000      -0.373498       -10.1634
  32   1.0000      -0.372228       -10.1288
  33   1.0000      -0.366870        -9.9830
  34   1.0000      -0.354420        -9.6443
  35   1.0000      -0.351090        -9.5537
  36   1.0000      -0.348149        -9.4736
  37   1.0000      -0.341580        -9.2949
  38   1.0000      -0.340254        -9.2588
  39   1.0000      -0.336537        -9.1576
  40   1.0000      -0.336344        -9.1524
  41   1.0000      -0.323259        -8.7963
  42   1.0000      -0.282699        -7.6926
  43   1.0000      -0.153092        -4.1658
  44   0.0000      -0.062519        -1.7012
  45   0.0000      -0.013543        -0.3685
  46   0.0000       0.006785         0.1846
  47   0.0000       0.028323         0.7707
  48   0.0000       0.028693         0.7808

                 SPIN DOWN ORBITALS
  NO   OCC          E(Eh)            E(eV)
   0   1.0000    -325.430903     -8855.4251
   1   1.0000    -325.430898     -8855.4249
   2   1.0000    -325.413127     -8854.9414
   3   1.0000     -39.641049     -1078.6878
   4   1.0000     -39.641026     -1078.6872
   5   1.0000     -39.625442     -1078.2631
   6   1.0000     -34.676651      -943.5997
   7   1.0000     -34.676641      -943.5994
   8   1.0000     -34.676417      -943.5933
   9   1.0000     -34.676410      -943.5931
  10   1.0000     -34.676404      -943.5929
  11   1.0000     -34.676399      -943.5928
  12   1.0000     -34.661200      -943.1792
  13   1.0000     -34.660931      -943.1719
  14   1.0000     -34.660171      -943.1512
  15   1.0000      -4.590543      -124.9150
  16   1.0000      -4.590134      -124.9039
  17   1.0000      -4.572147      -124.4144
  18   1.0000      -3.012278       -81.9683
  19   1.0000      -3.009275       -81.8865
  20   1.0000      -3.008046       -81.8531
  21   1.0000      -3.007323       -81.8334
  22   1.0000      -3.007020       -81.8252
  23   1.0000      -3.006711       -81.8168
  24   1.0000      -2.991567       -81.4047
  25   1.0000      -2.989958       -81.3609
  26   1.0000      -2.987869       -81.3040
  27   1.0000      -0.403988       -10.9931
  28   1.0000      -0.387521       -10.5450
  29   1.0000      -0.386547       -10.5185
  30   1.0000      -0.379126       -10.3166
  31   1.0000      -0.372174       -10.1274
  32   1.0000      -0.371735       -10.1154
  33   1.0000      -0.366866        -9.9829
  34   1.0000      -0.354235        -9.6392
  35   1.0000      -0.351250        -9.5580
  36   1.0000      -0.348769        -9.4905
  37   1.0000      -0.340565        -9.2672
  38   1.0000      -0.339401        -9.2356
  39   1.0000      -0.335200        -9.1213
  40   1.0000      -0.333910        -9.0861
  41   1.0000      -0.319780        -8.7017
  42   1.0000      -0.267661        -7.2834
  43   0.0000      -0.056160        -1.5282
  44   0.0000      -0.034964        -0.9514
  45   0.0000      -0.008812        -0.2398
  46   0.0000       0.015212         0.4139
  47   0.0000       0.040715         1.1079

MULLIKEN ATOMIC CHARGES AND SPIN POPULATIONS
--------------------------------------------
   0 Cu:   -0.116164    0.574963
   1 Cu:    0.058084    0.212516
   2 Cu:    0.058080    0.212521
Sum of atomic charges         :   -0.0000000

LOEWDIN ATOMIC CHARGES AND SPIN POPULATIONS
-------------------------------------------
   0 Cu:   -0.028771    0.391047
   1 Cu:    0.014386    0.304476
   2 Cu:    0.014385    0.304477

  Mayer bond orders larger than 0.100000
B(  0-Cu,  1-Cu) :   0.4617 B(  0-Cu,  2-Cu) :   0.4617 B(  1-Cu,  2-Cu) :   0.7568

MP2 TOTAL ENERGY:    -4921.051094482 Eh
Dispersion correction           -0.004164994
FINAL SINGLE POINT ENERGY     -4921.055259476097

DIPOLE MOMENT
-------------
                                X             Y             Z
Electronic contribution:      0.00000      -0.34228      -0.00000
Nuclear contribution   :      0.00000       0.00000      -0.00000
                        -----------------------------------------
Total Dipole Moment    :      0.00000      -0.34228      -0.00000
                        -----------------------------------------
Magnitude (a.u.)       :      0.34228
Magnitude (Debye)      :      0.87001

Rotational constants in cm-1:     0.097491     0.097491     0.048746
Rotational constants in MHz :  2922.716641  2922.715325  1461.357991

                             ****ORCA TERMINATED NORMALLY****
TOTAL RUN TIME: 0 days 0 hours 0 minutes 11 seconds 527 msec
