                         Program Version 4.2.0 -  RELEASE  -
|  1> #
|  2> # Cu03N0_LIN ri-B2PLYP-D3BJ/Def2-TZVPPD
|  3> #
|  4> ! rijk ri-b2plyp d3bj def2-tzvppd def2/jk def2-tzvppd/c grid4 nofinalgrid
|  5>
|  6> *xyz 0 2
|  7> Cu       0.000000    0.000000    0.000000
|  8> Cu       0.000000    0.000000    2.291099
|  9> Cu       0.000000    0.000000   -2.291099
| 10> *
| 11>
| 12> %maxcore 5000
| 13>
| 14> %pal
| 15> nprocs = 24
| 16> end
| 17>
| 18>
| 19>                          ****END OF INPUT****

CARTESIAN COORDINATES (ANGSTROEM)
---------------------------------
  Cu     0.000000    0.000000    0.000000
  Cu     0.000000    0.000000    2.291099
  Cu     0.000000    0.000000   -2.291099

 Total Charge           Charge          ....    0
 Multiplicity           Mult            ....    2
 Number of Electrons    NEL             ....   87
 Basis Dimension        Dim             ....  201

ORBITAL ENERGIES
----------------
                 SPIN UP ORBITALS
  NO   OCC          E(Eh)            E(eV)
   0   1.0000    -325.421180     -8855.1605
   1   1.0000    -325.421176     -8855.1604
   2   1.0000    -325.407050     -8854.7760
   3   1.0000     -39.629528     -1078.3743
   4   1.0000     -39.629513     -1078.3739
   5   1.0000     -39.618349     -1078.0701
   6   1.0000     -34.665070      -943.2845
   7   1.0000     -34.665068      -943.2845
   8   1.0000     -34.664531      -943.2698
   9   1.0000     -34.664531      -943.2698
  10   1.0000     -34.664529      -943.2698
  11   1.0000     -34.664529      -943.2698
  12   1.0000     -34.654209      -942.9890
  13   1.0000     -34.653437      -942.9680
  14   1.0000     -34.653437      -942.9680
  15   1.0000      -4.579877      -124.6248
  16   1.0000      -4.579868      -124.6245
  17   1.0000      -4.566390      -124.2578
  18   1.0000      -2.999727       -81.6267
  19   1.0000      -2.998824       -81.6021
  20   1.0000      -2.995695       -81.5170
  21   1.0000      -2.995695       -81.5170
  22   1.0000      -2.995694       -81.5170
  23   1.0000      -2.995694       -81.5170
  24   1.0000      -2.986640       -81.2706
  25   1.0000      -2.982277       -81.1519
  26   1.0000      -2.982277       -81.1519
  27   1.0000      -0.391563       -10.6550
  28   1.0000      -0.372738       -10.1427
  29   1.0000      -0.372738       -10.1427
  30   1.0000      -0.356948        -9.7130
  31   1.0000      -0.356948        -9.7130
  32   1.0000      -0.356808        -9.7093
  33   1.0000      -0.354784        -9.6542
  34   1.0000      -0.354779        -9.6540
  35   1.0000      -0.353379        -9.6159
  36   1.0000      -0.353374        -9.6158
  37   1.0000      -0.337178        -9.1751
  38   1.0000      -0.337172        -9.1749
  39   1.0000      -0.323463        -8.8019
  40   1.0000      -0.323463        -8.8019
  41   1.0000      -0.317783        -8.6473
  42   1.0000      -0.255029        -6.9397
  43   1.0000      -0.206779        -5.6267
  44   0.0000      -0.029184        -0.7941
  45   0.0000      -0.005979        -0.1627
  46   0.0000      -0.005979        -0.1627
  47   0.0000       0.021096         0.5740
  48   0.0000       0.030088         0.8187

                 SPIN DOWN ORBITALS
  NO   OCC          E(Eh)            E(eV)
   0   1.0000    -325.420146     -8855.1324
   1   1.0000    -325.420143     -8855.1323
   2   1.0000    -325.407106     -8854.7775
   3   1.0000     -39.629543     -1078.3747
   4   1.0000     -39.629527     -1078.3743
   5   1.0000     -39.618925     -1078.0858
   6   1.0000     -34.665882      -943.3066
   7   1.0000     -34.665880      -943.3065
   8   1.0000     -34.665135      -943.2863
   9   1.0000     -34.665135      -943.2863
  10   1.0000     -34.665133      -943.2862
  11   1.0000     -34.665133      -943.2862
  12   1.0000     -34.654302      -942.9915
  13   1.0000     -34.653697      -942.9750
  14   1.0000     -34.653697      -942.9750
  15   1.0000      -4.578797      -124.5954
  16   1.0000      -4.578791      -124.5952
  17   1.0000      -4.567602      -124.2908
  18   1.0000      -3.000384       -81.6446
  19   1.0000      -2.999582       -81.6228
  20   1.0000      -2.997015       -81.5529
  21   1.0000      -2.997015       -81.5529
  22   1.0000      -2.997005       -81.5527
  23   1.0000      -2.997005       -81.5527
  24   1.0000      -2.986601       -81.2695
  25   1.0000      -2.983354       -81.1812
  26   1.0000      -2.983354       -81.1812
  27   1.0000      -0.389485       -10.5984
  28   1.0000      -0.371938       -10.1209
  29   1.0000      -0.371938       -10.1209
  30   1.0000      -0.357381        -9.7248
  31   1.0000      -0.356345        -9.6966
  32   1.0000      -0.356345        -9.6966
  33   1.0000      -0.354501        -9.6465
  34   1.0000      -0.354497        -9.6463
  35   1.0000      -0.353095        -9.6082
  36   1.0000      -0.353091        -9.6081
  37   1.0000      -0.338048        -9.1987
  38   1.0000      -0.338041        -9.1986
  39   1.0000      -0.325134        -8.8474
  40   1.0000      -0.325134        -8.8474
  41   1.0000      -0.316939        -8.6243
  42   1.0000      -0.225485        -6.1358
  43   0.0000      -0.084879        -2.3097
  44   0.0000      -0.012490        -0.3399
  45   0.0000       0.000733         0.0200
  46   0.0000       0.000733         0.0200
  47   0.0000       0.030876         0.8402

MULLIKEN ATOMIC CHARGES AND SPIN POPULATIONS
--------------------------------------------
   0 Cu:   -0.292663   -0.225617
   1 Cu:    0.146336    0.612815
   2 Cu:    0.146327    0.612802
Sum of atomic charges         :   -0.0000000

LOEWDIN ATOMIC CHARGES AND SPIN POPULATIONS
-------------------------------------------
   0 Cu:   -0.242992    0.386735
   1 Cu:    0.121496    0.306633
   2 Cu:    0.121496    0.306633

  Mayer bond orders larger than 0.100000
B(  0-Cu,  1-Cu) :   0.5075 B(  0-Cu,  2-Cu) :   0.5075

MP2 TOTAL ENERGY:    -4921.045617815 Eh
Dispersion correction           -0.003277111
FINAL SINGLE POINT ENERGY     -4921.048894925457

DIPOLE MOMENT
-------------
                                X             Y             Z
Electronic contribution:      0.00000       0.00000      -0.00000
Nuclear contribution   :      0.00000       0.00000       0.00000
                        -----------------------------------------
Total Dipole Moment    :      0.00000       0.00000      -0.00000
                        -----------------------------------------
Magnitude (a.u.)       :      0.00000
Magnitude (Debye)      :      0.00000

Rotational constants in cm-1:     0.000000     0.025268     0.025268
Rotational constants in MHz :     0.000000   757.502973   757.502973

                             ****ORCA TERMINATED NORMALLY****
TOTAL RUN TIME: 0 days 0 hours 0 minutes 12 seconds 200 msec
