                         Program Version 4.2.0 -  RELEASE  -
|  1> #
|  2> # Cu03C1_LIN ri-B2PLYP-D3BJ/Def2-TZVPPD
|  3> #
|  4> ! rijk ri-b2plyp d3bj def2-tzvppd def2/jk def2-tzvppd/c grid4 nofinalgrid
|  5>
|  6> *xyz 1 1
|  7> Cu       0.000000    0.000000    0.000000
|  8> Cu       0.000000    0.000000    2.337165
|  9> Cu       0.000000    0.000000   -2.337165
| 10> *
| 11>
| 12> %maxcore 5000
| 13>
| 14> %pal
| 15> nprocs = 24
| 16> end
| 17>
| 18>
| 19>                          ****END OF INPUT****

CARTESIAN COORDINATES (ANGSTROEM)
---------------------------------
  Cu     0.000000    0.000000    0.000000
  Cu     0.000000    0.000000    2.337165
  Cu     0.000000    0.000000   -2.337165

 Total Charge           Charge          ....    1
 Multiplicity           Mult            ....    1
 Number of Electrons    NEL             ....   86
 Basis Dimension        Dim             ....  201

ORBITAL ENERGIES
----------------

  NO   OCC          E(Eh)            E(eV)
   0   2.0000    -325.633661     -8860.9424
   1   2.0000    -325.633658     -8860.9423
   2   2.0000    -325.591888     -8859.8057
   3   2.0000     -39.838120     -1084.0504
   4   2.0000     -39.838107     -1084.0500
   5   2.0000     -39.802716     -1083.0870
   6   2.0000     -34.874748      -948.9901
   7   2.0000     -34.874746      -948.9901
   8   2.0000     -34.874241      -948.9763
   9   2.0000     -34.874241      -948.9763
  10   2.0000     -34.874239      -948.9763
  11   2.0000     -34.874239      -948.9763
  12   2.0000     -34.838631      -948.0073
  13   2.0000     -34.837476      -947.9759
  14   2.0000     -34.837476      -947.9759
  15   2.0000      -4.791155      -130.3740
  16   2.0000      -4.791138      -130.3735
  17   2.0000      -4.751393      -129.2920
  18   2.0000      -3.212367       -87.4129
  19   2.0000      -3.212192       -87.4082
  20   2.0000      -3.210038       -87.3496
  21   2.0000      -3.210038       -87.3496
  22   2.0000      -3.210031       -87.3494
  23   2.0000      -3.210031       -87.3494
  24   2.0000      -3.172776       -86.3356
  25   2.0000      -3.166420       -86.1627
  26   2.0000      -3.166420       -86.1627
  27   2.0000      -0.592538       -16.1238
  28   2.0000      -0.577448       -15.7132
  29   2.0000      -0.577448       -15.7132
  30   2.0000      -0.571080       -15.5399
  31   2.0000      -0.570291       -15.5184
  32   2.0000      -0.570291       -15.5184
  33   2.0000      -0.568005       -15.4562
  34   2.0000      -0.568000       -15.4561
  35   2.0000      -0.567644       -15.4464
  36   2.0000      -0.567638       -15.4462
  37   2.0000      -0.521913       -14.2020
  38   2.0000      -0.521905       -14.2017
  39   2.0000      -0.518826       -14.1180
  40   2.0000      -0.518826       -14.1180
  41   2.0000      -0.514861       -14.0101
  42   2.0000      -0.414106       -11.2684
  43   0.0000      -0.278807        -7.5867
  44   0.0000      -0.179391        -4.8815
  45   0.0000      -0.156434        -4.2568
  46   0.0000      -0.156434        -4.2568
  47   0.0000      -0.115195        -3.1346

MULLIKEN ATOMIC CHARGES
-----------------------
   0 Cu:   -0.259626
   1 Cu:    0.629800
   2 Cu:    0.629826
Sum of atomic charges:    1.0000000

LOEWDIN ATOMIC CHARGES
----------------------
   0 Cu:    0.154602
   1 Cu:    0.422699
   2 Cu:    0.422699

  Mayer bond orders larger than 0.100000
B(  0-Cu,  1-Cu) :   0.4896 B(  0-Cu,  2-Cu) :   0.4895 B(  1-Cu,  2-Cu) :   0.1639

MP2 TOTAL ENERGY:    -4920.788036436 Eh
Dispersion correction           -0.003233480
FINAL SINGLE POINT ENERGY     -4920.791269915391

DIPOLE MOMENT
-------------
                                X             Y             Z
Electronic contribution:      0.00000      -0.00000      -0.00000
Nuclear contribution   :      0.00000       0.00000       0.00000
                        -----------------------------------------
Total Dipole Moment    :      0.00000      -0.00000      -0.00000
                        -----------------------------------------
Magnitude (a.u.)       :      0.00000
Magnitude (Debye)      :      0.00000

Rotational constants in cm-1:     0.000000     0.024281     0.024281
Rotational constants in MHz :     0.000000   727.936180   727.936180

                             ****ORCA TERMINATED NORMALLY****
TOTAL RUN TIME: 0 days 0 hours 0 minutes 8 seconds 217 msec
