                         Program Version 4.2.0 -  RELEASE  -
|  1> #
|  2> # Cu03C1_D3H ri-B2PLYP-D3BJ/Def2-TZVPPD
|  3> #
|  4> ! rijk ri-b2plyp d3bj def2-tzvppd def2/jk def2-tzvppd/c grid4 nofinalgrid
|  5>
|  6> *xyz 1 1
|  7> Cu       0.000000    1.349261   -0.000000
|  8> Cu       1.168494   -0.674630    0.000000
|  9> Cu      -1.168494   -0.674630   -0.000000
| 10> *
| 11>
| 12> %maxcore 5000
| 13>
| 14> %pal
| 15> nprocs = 24
| 16> end
| 17>
| 18>
| 19>                          ****END OF INPUT****

CARTESIAN COORDINATES (ANGSTROEM)
---------------------------------
  Cu     0.000000    1.349261   -0.000000
  Cu     1.168494   -0.674630    0.000000
  Cu    -1.168494   -0.674630   -0.000000

 Total Charge           Charge          ....    1
 Multiplicity           Mult            ....    1
 Number of Electrons    NEL             ....   86
 Basis Dimension        Dim             ....  201

ORBITAL ENERGIES
----------------

  NO   OCC          E(Eh)            E(eV)
   0   2.0000    -325.627580     -8860.7769
   1   2.0000    -325.627576     -8860.7768
   2   2.0000    -325.627569     -8860.7766
   3   2.0000     -39.836264     -1083.9998
   4   2.0000     -39.836260     -1083.9997
   5   2.0000     -39.836228     -1083.9989
   6   2.0000     -34.872437      -948.9273
   7   2.0000     -34.872423      -948.9269
   8   2.0000     -34.872420      -948.9268
   9   2.0000     -34.871784      -948.9095
  10   2.0000     -34.871780      -948.9094
  11   2.0000     -34.871770      -948.9091
  12   2.0000     -34.871421      -948.8996
  13   2.0000     -34.871417      -948.8995
  14   2.0000     -34.871410      -948.8993
  15   2.0000      -4.787006      -130.2611
  16   2.0000      -4.786409      -130.2448
  17   2.0000      -4.786405      -130.2447
  18   2.0000      -3.209235       -87.3277
  19   2.0000      -3.206843       -87.2626
  20   2.0000      -3.206842       -87.2626
  21   2.0000      -3.204195       -87.1906
  22   2.0000      -3.203946       -87.1838
  23   2.0000      -3.203943       -87.1837
  24   2.0000      -3.203224       -87.1642
  25   2.0000      -3.202774       -87.1519
  26   2.0000      -3.202770       -87.1518
  27   2.0000      -0.604117       -16.4388
  28   2.0000      -0.586055       -15.9474
  29   2.0000      -0.585969       -15.9450
  30   2.0000      -0.585964       -15.9449
  31   2.0000      -0.573943       -15.6178
  32   2.0000      -0.570611       -15.5271
  33   2.0000      -0.570595       -15.5267
  34   2.0000      -0.552426       -15.0323
  35   2.0000      -0.552424       -15.0322
  36   2.0000      -0.549879       -14.9630
  37   2.0000      -0.546004       -14.8575
  38   2.0000      -0.545978       -14.8568
  39   2.0000      -0.545341       -14.8395
  40   2.0000      -0.545312       -14.8387
  41   2.0000      -0.526671       -14.3315
  42   2.0000      -0.463190       -12.6040
  43   0.0000      -0.224612        -6.1120
  44   0.0000      -0.224610        -6.1120
  45   0.0000      -0.173075        -4.7096
  46   0.0000      -0.135210        -3.6792
  47   0.0000      -0.114318        -3.1108

MULLIKEN ATOMIC CHARGES
-----------------------
   0 Cu:    0.333339
   1 Cu:    0.333330
   2 Cu:    0.333331
Sum of atomic charges:    1.0000000

LOEWDIN ATOMIC CHARGES
----------------------
   0 Cu:    0.333338
   1 Cu:    0.333331
   2 Cu:    0.333331

  Mayer bond orders larger than 0.100000
B(  0-Cu,  1-Cu) :   0.5035 B(  0-Cu,  2-Cu) :   0.5035 B(  1-Cu,  2-Cu) :   0.5035

MP2 TOTAL ENERGY:    -4920.845173405 Eh
Dispersion correction           -0.004164124
FINAL SINGLE POINT ENERGY     -4920.849337528613

DIPOLE MOMENT
-------------
                                X             Y             Z
Electronic contribution:     -0.00000       0.00003       0.00000
Nuclear contribution   :      0.00000       0.00000       0.00000
                        -----------------------------------------
Total Dipole Moment    :     -0.00000       0.00003       0.00000
                        -----------------------------------------
Magnitude (a.u.)       :      0.00003
Magnitude (Debye)      :      0.00008

Rotational constants in cm-1:     0.097140     0.097140     0.048570
Rotational constants in MHz :  2912.185801  2912.185732  1456.092883

                             ****ORCA TERMINATED NORMALLY****
TOTAL RUN TIME: 0 days 0 hours 0 minutes 6 seconds 567 msec
