                         Program Version 4.2.0 -  RELEASE  -
|  1> #
|  2> # Cu04C2_NH3_F ri-B2PLYP-D3BJ/Def2-TZVPPD
|  3> #
|  4> ! rijk ri-b2plyp d3bj def2-tzvppd def2/jk def2-tzvppd/c grid4 nofinalgrid
|  5>
|  6> *xyz 2 1
|  7> Cu       0.253817    1.375381    0.000000
|  8> Cu       0.253817   -0.687598    1.191098
|  9> Cu       0.253817   -0.687598   -1.191098
| 10> Cu      -1.745352    0.000159    0.000000
| 11> N        2.725949   -0.000959   -0.000000
| 12> H        3.150217   -0.936878   -0.000000
| 13> H        3.150637    0.466806   -0.810419
| 14> H        3.150637    0.466806    0.810419
| 15> *
| 16>
| 17> %maxcore 5000
| 18>
| 19> %pal
| 20> nprocs = 24
| 21> end
| 22>
| 23>
| 24>                          ****END OF INPUT****

CARTESIAN COORDINATES (ANGSTROEM)
---------------------------------
  Cu     0.253817    1.375381    0.000000
  Cu     0.253817   -0.687598    1.191098
  Cu     0.253817   -0.687598   -1.191098
  Cu    -1.745352    0.000159    0.000000
  N      2.725949   -0.000959   -0.000000
  H      3.150217   -0.936878   -0.000000
  H      3.150637    0.466806   -0.810419
  H      3.150637    0.466806    0.810419

 Total Charge           Charge          ....    2
 Multiplicity           Mult            ....    1
 Number of Electrons    NEL             ....  124
 Basis Dimension        Dim             ....  356

ORBITAL ENERGIES
----------------

  NO   OCC          E(Eh)            E(eV)
   0   2.0000    -325.800441     -8865.4807
   1   2.0000    -325.800434     -8865.4805
   2   2.0000    -325.800431     -8865.4804
   3   2.0000    -325.792467     -8865.2637
   4   2.0000     -40.008196     -1088.6784
   5   2.0000     -40.008190     -1088.6782
   6   2.0000     -40.008173     -1088.6777
   7   2.0000     -40.001262     -1088.4897
   8   2.0000     -35.044652      -953.6135
   9   2.0000     -35.044639      -953.6131
  10   2.0000     -35.044635      -953.6130
  11   2.0000     -35.043782      -953.5898
  12   2.0000     -35.043775      -953.5896
  13   2.0000     -35.043767      -953.5894
  14   2.0000     -35.043606      -953.5850
  15   2.0000     -35.043598      -953.5848
  16   2.0000     -35.043594      -953.5847
  17   2.0000     -35.036923      -953.4031
  18   2.0000     -35.036923      -953.4031
  19   2.0000     -35.036849      -953.4011
  20   2.0000     -15.167349      -412.7245
  21   2.0000      -4.959355      -134.9509
  22   2.0000      -4.958856      -134.9373
  23   2.0000      -4.958851      -134.9372
  24   2.0000      -4.950849      -134.7194
  25   2.0000      -3.381360       -92.0115
  26   2.0000      -3.379212       -91.9530
  27   2.0000      -3.379210       -91.9530
  28   2.0000      -3.377173       -91.8976
  29   2.0000      -3.377167       -91.8974
  30   2.0000      -3.376943       -91.8913
  31   2.0000      -3.376827       -91.8881
  32   2.0000      -3.375891       -91.8627
  33   2.0000      -3.375886       -91.8625
  34   2.0000      -3.369863       -91.6986
  35   2.0000      -3.368297       -91.6560
  36   2.0000      -3.368296       -91.6560
  37   2.0000      -1.311731       -35.6940
  38   2.0000      -0.863554       -23.4985
  39   2.0000      -0.863549       -23.4984
  40   2.0000      -0.789625       -21.4868
  41   2.0000      -0.773025       -21.0351
  42   2.0000      -0.761437       -20.7198
  43   2.0000      -0.761430       -20.7196
  44   2.0000      -0.752716       -20.4824
  45   2.0000      -0.752712       -20.4823
  46   2.0000      -0.748999       -20.3813
  47   2.0000      -0.740555       -20.1515
  48   2.0000      -0.740554       -20.1515
  49   2.0000      -0.727346       -19.7921
  50   2.0000      -0.724027       -19.7018
  51   2.0000      -0.724018       -19.7015
  52   2.0000      -0.723935       -19.6993
  53   2.0000      -0.721104       -19.6222
  54   2.0000      -0.721085       -19.6217
  55   2.0000      -0.717743       -19.5308
  56   2.0000      -0.717742       -19.5307
  57   2.0000      -0.707631       -19.2556
  58   2.0000      -0.700762       -19.0687
  59   2.0000      -0.698061       -18.9952
  60   2.0000      -0.698046       -18.9948
  61   2.0000      -0.632063       -17.1993
  62   0.0000      -0.384237       -10.4556
  63   0.0000      -0.384237       -10.4556
  64   0.0000      -0.359233        -9.7752
  65   0.0000      -0.287809        -7.8317
  66   0.0000      -0.262411        -7.1406

MULLIKEN ATOMIC CHARGES
-----------------------
   0 Cu:    0.487410
   1 Cu:    0.487465
   2 Cu:    0.487470
   3 Cu:    0.281253
   4 N :   -0.399870
   5 H :    0.218764
   6 H :    0.218751
   7 H :    0.218756
Sum of atomic charges:    2.0000000

LOEWDIN ATOMIC CHARGES
----------------------
   0 Cu:    0.418081
   1 Cu:    0.417995
   2 Cu:    0.417995
   3 Cu:    0.485865
   4 N :    0.479983
   5 H :   -0.073308
   6 H :   -0.073306
   7 H :   -0.073306

  Mayer bond orders larger than 0.100000
B(  0-Cu,  1-Cu) :   0.3135 B(  0-Cu,  2-Cu) :   0.3135 B(  0-Cu,  3-Cu) :   0.3721
B(  1-Cu,  2-Cu) :   0.3135 B(  1-Cu,  3-Cu) :   0.3719 B(  2-Cu,  3-Cu) :   0.3719
B(  4-N ,  5-H ) :   0.9939 B(  4-N ,  6-H ) :   0.9939 B(  4-N ,  7-H ) :   0.9939

MP2 TOTAL ENERGY:    -6617.390421138 Eh
Dispersion correction           -0.012125188
FINAL SINGLE POINT ENERGY     -6617.402546326228

DIPOLE MOMENT
-------------
                                X             Y             Z
Electronic contribution:    -11.54243       0.00410       0.00000
Nuclear contribution   :     13.00779      -0.00451       0.00000
                        -----------------------------------------
Total Dipole Moment    :      1.46536      -0.00041       0.00000
                        -----------------------------------------
Magnitude (a.u.)       :      1.46536
Magnitude (Debye)      :      3.72465

Rotational constants in cm-1:     0.046405     0.032369     0.032369
Rotational constants in MHz :  1391.178817   970.405392   970.384771

                             ****ORCA TERMINATED NORMALLY****
TOTAL RUN TIME: 0 days 0 hours 0 minutes 20 seconds 34 msec
