                         Program Version 4.2.0 -  RELEASE  -
|  1> #
|  2> # Cu04N0 ri-B2PLYP-D3BJ/Def2-TZVPPD
|  3> #
|  4> ! rijk ri-b2plyp d3bj def2-tzvppd def2/jk def2-tzvppd/c grid4 nofinalgrid
|  5>
|  6> *xyz 0 1
|  7> Cu      -0.387876   -0.085256    2.052405
|  8> Cu       1.110029    0.096858    0.214111
|  9> Cu       0.386859    0.085217   -2.052443
| 10> Cu      -1.109011   -0.096818   -0.214073
| 11> *
| 12>
| 13> %maxcore 5000
| 14>
| 15> %pal
| 16> nprocs = 24
| 17> end
| 18>
| 19>
| 20>                          ****END OF INPUT****

CARTESIAN COORDINATES (ANGSTROEM)
---------------------------------
  Cu    -0.387876   -0.085256    2.052405
  Cu     1.110029    0.096858    0.214111
  Cu     0.386859    0.085217   -2.052443
  Cu    -1.109011   -0.096818   -0.214073

 Total Charge           Charge          ....    0
 Multiplicity           Mult            ....    1
 Number of Electrons    NEL             ....  116
 Basis Dimension        Dim             ....  268

ORBITAL ENERGIES
----------------

  NO   OCC          E(Eh)            E(eV)
   0   2.0000    -325.431234     -8855.4341
   1   2.0000    -325.431223     -8855.4338
   2   2.0000    -325.406131     -8854.7510
   3   2.0000    -325.406115     -8854.7506
   4   2.0000     -39.642349     -1078.7231
   5   2.0000     -39.642327     -1078.7226
   6   2.0000     -39.618354     -1078.0702
   7   2.0000     -39.618331     -1078.0696
   8   2.0000     -34.678011      -943.6367
   9   2.0000     -34.678002      -943.6364
  10   2.0000     -34.677577      -943.6248
  11   2.0000     -34.677570      -943.6247
  12   2.0000     -34.677544      -943.6240
  13   2.0000     -34.677538      -943.6238
  14   2.0000     -34.653868      -942.9797
  15   2.0000     -34.653851      -942.9792
  16   2.0000     -34.653371      -942.9662
  17   2.0000     -34.653354      -942.9657
  18   2.0000     -34.652748      -942.9492
  19   2.0000     -34.652732      -942.9488
  20   2.0000      -4.591870      -124.9511
  21   2.0000      -4.591278      -124.9350
  22   2.0000      -4.565405      -124.2310
  23   2.0000      -4.565383      -124.2304
  24   2.0000      -3.014256       -82.0221
  25   2.0000      -3.009372       -81.8892
  26   2.0000      -3.009099       -81.8817
  27   2.0000      -3.008828       -81.8744
  28   2.0000      -3.008258       -81.8589
  29   2.0000      -3.007844       -81.8476
  30   2.0000      -2.984101       -81.2015
  31   2.0000      -2.983958       -81.1976
  32   2.0000      -2.982077       -81.1464
  33   2.0000      -2.982011       -81.1447
  34   2.0000      -2.980240       -81.0965
  35   2.0000      -2.980223       -81.0960
  36   2.0000      -0.405103       -11.0234
  37   2.0000      -0.402147       -10.9430
  38   2.0000      -0.388789       -10.5795
  39   2.0000      -0.381222       -10.3736
  40   2.0000      -0.379926       -10.3383
  41   2.0000      -0.378333       -10.2950
  42   2.0000      -0.366642        -9.9768
  43   2.0000      -0.359369        -9.7789
  44   2.0000      -0.350432        -9.5357
  45   2.0000      -0.350089        -9.5264
  46   2.0000      -0.342484        -9.3195
  47   2.0000      -0.337526        -9.1845
  48   2.0000      -0.337491        -9.1836
  49   2.0000      -0.335588        -9.1318
  50   2.0000      -0.331471        -9.0198
  51   2.0000      -0.330771        -9.0007
  52   2.0000      -0.329979        -8.9792
  53   2.0000      -0.327576        -8.9138
  54   2.0000      -0.324675        -8.8349
  55   2.0000      -0.311910        -8.4875
  56   2.0000      -0.288621        -7.8538
  57   2.0000      -0.185424        -5.0456
  58   0.0000      -0.058711        -1.5976
  59   0.0000      -0.017942        -0.4882
  60   0.0000      -0.016427        -0.4470
  61   0.0000       0.017899         0.4871
  62   0.0000       0.021599         0.5877

MULLIKEN ATOMIC CHARGES
-----------------------
   0 Cu:   -0.309233
   1 Cu:    0.309236
   2 Cu:   -0.309252
   3 Cu:    0.309249
Sum of atomic charges:    0.0000000

LOEWDIN ATOMIC CHARGES
----------------------
   0 Cu:    0.157537
   1 Cu:   -0.157263
   2 Cu:    0.157539
   3 Cu:   -0.157813

  Mayer bond orders larger than 0.100000
B(  0-Cu,  1-Cu) :   0.4047 B(  0-Cu,  2-Cu) :   0.1428 B(  0-Cu,  3-Cu) :   0.4032
B(  1-Cu,  2-Cu) :   0.4032 B(  1-Cu,  3-Cu) :   0.3605 B(  2-Cu,  3-Cu) :   0.4048

MP2 TOTAL ENERGY:    -6561.454322271 Eh
Dispersion correction           -0.007616054
FINAL SINGLE POINT ENERGY     -6561.461938325467

DIPOLE MOMENT
-------------
                                X             Y             Z
Electronic contribution:      0.00090       0.00008       0.00000
Nuclear contribution   :      0.00000       0.00000      -0.00000
                        -----------------------------------------
Total Dipole Moment    :      0.00090       0.00008       0.00000
                        -----------------------------------------
Magnitude (a.u.)       :      0.00091
Magnitude (Debye)      :      0.00230

Rotational constants in cm-1:     0.103116     0.030352     0.023450
Rotational constants in MHz :  3091.345194   909.942810   703.010463

                             ****ORCA TERMINATED NORMALLY****
TOTAL RUN TIME: 0 days 0 hours 0 minutes 13 seconds 308 msec
