                         Program Version 4.2.0 -  RELEASE  -
|  1> #
|  2> # Cu04C2 ri-B2PLYP-D3BJ/Def2-TZVPPD
|  3> #
|  4> ! rijk ri-b2plyp d3bj def2-tzvppd def2/jk def2-tzvppd/c grid4 nofinalgrid
|  5>
|  6> *xyz 2 1
|  7> Cu      -0.000001   -0.000007    1.488630
|  8> Cu       0.000001   -1.403449   -0.496203
|  9> Cu       1.215485    0.701727   -0.496214
| 10> Cu      -1.215485    0.701729   -0.496213
| 11> *
| 12>
| 13> %maxcore 5000
| 14>
| 15> %pal
| 16> nprocs = 24
| 17> end
| 18>
| 19>
| 20>                          ****END OF INPUT****

CARTESIAN COORDINATES (ANGSTROEM)
---------------------------------
  Cu    -0.000001   -0.000007    1.488630
  Cu     0.000001   -1.403449   -0.496203
  Cu     1.215485    0.701727   -0.496214
  Cu    -1.215485    0.701729   -0.496213

 Total Charge           Charge          ....    2
 Multiplicity           Mult            ....    1
 Number of Electrons    NEL             ....  114
 Basis Dimension        Dim             ....  268

ORBITAL ENERGIES
----------------

  NO   OCC          E(Eh)            E(eV)
   0   2.0000    -325.833175     -8866.3714
   1   2.0000    -325.833172     -8866.3714
   2   2.0000    -325.833163     -8866.3711
   3   2.0000    -325.833149     -8866.3707
   4   2.0000     -40.040950     -1089.5697
   5   2.0000     -40.040946     -1089.5695
   6   2.0000     -40.040936     -1089.5693
   7   2.0000     -40.040906     -1089.5684
   8   2.0000     -35.076893      -954.4908
   9   2.0000     -35.076891      -954.4907
  10   2.0000     -35.076888      -954.4907
  11   2.0000     -35.076881      -954.4905
  12   2.0000     -35.076876      -954.4903
  13   2.0000     -35.076876      -954.4903
  14   2.0000     -35.076864      -954.4900
  15   2.0000     -35.076864      -954.4900
  16   2.0000     -35.076522      -954.4807
  17   2.0000     -35.076518      -954.4806
  18   2.0000     -35.076509      -954.4803
  19   2.0000     -35.076495      -954.4800
  20   2.0000      -4.991754      -135.8325
  21   2.0000      -4.991257      -135.8190
  22   2.0000      -4.991254      -135.8189
  23   2.0000      -4.991249      -135.8188
  24   2.0000      -3.413607       -92.8890
  25   2.0000      -3.411124       -92.8214
  26   2.0000      -3.411123       -92.8214
  27   2.0000      -3.411122       -92.8213
  28   2.0000      -3.410079       -92.7930
  29   2.0000      -3.410077       -92.7929
  30   2.0000      -3.408786       -92.7578
  31   2.0000      -3.408784       -92.7577
  32   2.0000      -3.408783       -92.7577
  33   2.0000      -3.408683       -92.7550
  34   2.0000      -3.408679       -92.7549
  35   2.0000      -3.408678       -92.7548
  36   2.0000      -0.820381       -22.3237
  37   2.0000      -0.794413       -21.6171
  38   2.0000      -0.794411       -21.6170
  39   2.0000      -0.794398       -21.6167
  40   2.0000      -0.785821       -21.3833
  41   2.0000      -0.785818       -21.3832
  42   2.0000      -0.776858       -21.1394
  43   2.0000      -0.776854       -21.1393
  44   2.0000      -0.776843       -21.1390
  45   2.0000      -0.757458       -20.6115
  46   2.0000      -0.757446       -20.6112
  47   2.0000      -0.757444       -20.6111
  48   2.0000      -0.754869       -20.5410
  49   2.0000      -0.754864       -20.5409
  50   2.0000      -0.753743       -20.5104
  51   2.0000      -0.753736       -20.5102
  52   2.0000      -0.753726       -20.5099
  53   2.0000      -0.734469       -19.9859
  54   2.0000      -0.734469       -19.9859
  55   2.0000      -0.734455       -19.9855
  56   2.0000      -0.694334       -18.8938
  57   0.0000      -0.410585       -11.1726
  58   0.0000      -0.410585       -11.1726
  59   0.0000      -0.410583       -11.1725
  60   0.0000      -0.305555        -8.3146
  61   0.0000      -0.281260        -7.6535

MULLIKEN ATOMIC CHARGES
-----------------------
   0 Cu:    0.500019
   1 Cu:    0.499957
   2 Cu:    0.500011
   3 Cu:    0.500013
Sum of atomic charges:    2.0000000

LOEWDIN ATOMIC CHARGES
----------------------
   0 Cu:    0.500003
   1 Cu:    0.500001
   2 Cu:    0.499998
   3 Cu:    0.499998

  Mayer bond orders larger than 0.100000
B(  0-Cu,  1-Cu) :   0.3239 B(  0-Cu,  2-Cu) :   0.3238 B(  0-Cu,  3-Cu) :   0.3238
B(  1-Cu,  2-Cu) :   0.3239 B(  1-Cu,  3-Cu) :   0.3239 B(  2-Cu,  3-Cu) :   0.3238

MP2 TOTAL ENERGY:    -6560.804921366 Eh
Dispersion correction           -0.008284229
FINAL SINGLE POINT ENERGY     -6560.813205595426

DIPOLE MOMENT
-------------
                                X             Y             Z
Electronic contribution:     -0.00000      -0.00003       0.00001
Nuclear contribution   :      0.00000       0.00000      -0.00000
                        -----------------------------------------
Total Dipole Moment    :     -0.00000      -0.00003       0.00001
                        -----------------------------------------
Magnitude (a.u.)       :      0.00003
Magnitude (Debye)      :      0.00007

Rotational constants in cm-1:     0.044890     0.044889     0.044888
Rotational constants in MHz :  1345.776498  1345.751239  1345.708462

                             ****ORCA TERMINATED NORMALLY****
TOTAL RUN TIME: 0 days 0 hours 0 minutes 10 seconds 330 msec
