                         Program Version 4.2.0 -  RELEASE  -
|  1> #
|  2> # Cu04C2_H_A ri-B2PLYP-D3BJ/Def2-TZVPPD
|  3> #
|  4> ! rijk ri-b2plyp d3bj def2-tzvppd def2/jk def2-tzvppd/c grid4 nofinalgrid
|  5>
|  6> *xyz 2 2
|  7> Cu      -0.000000    1.401870   -0.545062
|  8> Cu       1.214055   -0.700935   -0.545062
|  9> Cu      -1.214055   -0.700935   -0.545062
| 10> Cu       0.000000    0.000000    1.530006
| 11> H        0.000000    0.000000    3.050192
| 12> *
| 13>
| 14> %maxcore 5000
| 15>
| 16> %pal
| 17> nprocs = 24
| 18> end
| 19>
| 20>
| 21>                          ****END OF INPUT****

CARTESIAN COORDINATES (ANGSTROEM)
---------------------------------
  Cu    -0.000000    1.401870   -0.545062
  Cu     1.214055   -0.700935   -0.545062
  Cu    -1.214055   -0.700935   -0.545062
  Cu     0.000000    0.000000    1.530006
  H      0.000000    0.000000    3.050192

 Total Charge           Charge          ....    2
 Multiplicity           Mult            ....    2
 Number of Electrons    NEL             ....  115
 Basis Dimension        Dim             ....  285

ORBITAL ENERGIES
----------------
                 SPIN UP ORBITALS
  NO   OCC          E(Eh)            E(eV)
   0   1.0000    -325.866933     -8867.2901
   1   1.0000    -325.834007     -8866.3941
   2   1.0000    -325.833999     -8866.3939
   3   1.0000    -325.833994     -8866.3937
   4   1.0000     -40.084131     -1090.7447
   5   1.0000     -40.041811     -1089.5931
   6   1.0000     -40.041804     -1089.5929
   7   1.0000     -40.041785     -1089.5924
   8   1.0000     -35.125059      -955.8014
   9   1.0000     -35.115615      -955.5445
  10   1.0000     -35.115614      -955.5444
  11   1.0000     -35.077777      -954.5148
  12   1.0000     -35.077770      -954.5146
  13   1.0000     -35.077764      -954.5145
  14   1.0000     -35.077667      -954.5118
  15   1.0000     -35.077653      -954.5115
  16   1.0000     -35.077649      -954.5113
  17   1.0000     -35.077393      -954.5044
  18   1.0000     -35.077386      -954.5042
  19   1.0000     -35.077376      -954.5039
  20   1.0000      -5.033193      -136.9601
  21   1.0000      -4.992358      -135.8490
  22   1.0000      -4.991976      -135.8386
  23   1.0000      -4.991972      -135.8385
  24   1.0000      -3.465747       -94.3078
  25   1.0000      -3.442552       -93.6766
  26   1.0000      -3.442548       -93.6765
  27   1.0000      -3.413659       -92.8904
  28   1.0000      -3.411530       -92.8324
  29   1.0000      -3.411529       -92.8324
  30   1.0000      -3.410293       -92.7988
  31   1.0000      -3.410161       -92.7952
  32   1.0000      -3.410154       -92.7950
  33   1.0000      -3.409419       -92.7750
  34   1.0000      -3.409417       -92.7750
  35   1.0000      -3.409204       -92.7691
  36   1.0000      -0.868977       -23.6461
  37   1.0000      -0.814709       -22.1694
  38   1.0000      -0.814689       -22.1688
  39   1.0000      -0.803684       -21.8693
  40   1.0000      -0.800173       -21.7738
  41   1.0000      -0.800172       -21.7738
  42   1.0000      -0.790117       -21.5002
  43   1.0000      -0.784667       -21.3519
  44   1.0000      -0.784665       -21.3518
  45   1.0000      -0.777993       -21.1703
  46   1.0000      -0.770240       -20.9593
  47   1.0000      -0.770232       -20.9591
  48   1.0000      -0.757896       -20.6234
  49   1.0000      -0.757410       -20.6102
  50   1.0000      -0.757408       -20.6101
  51   1.0000      -0.754161       -20.5218
  52   1.0000      -0.754145       -20.5213
  53   1.0000      -0.746339       -20.3089
  54   1.0000      -0.746334       -20.3088
  55   1.0000      -0.734508       -19.9870
  56   1.0000      -0.734247       -19.9799
  57   1.0000      -0.688218       -18.7274
  58   0.0000      -0.412270       -11.2184
  59   0.0000      -0.412268       -11.2184
  60   0.0000      -0.383373       -10.4321
  61   0.0000      -0.299278        -8.1438
  62   0.0000      -0.285687        -7.7740

                 SPIN DOWN ORBITALS
  NO   OCC          E(Eh)            E(eV)
   0   1.0000    -325.865958     -8867.2635
   1   1.0000    -325.833954     -8866.3926
   2   1.0000    -325.833945     -8866.3924
   3   1.0000    -325.833941     -8866.3923
   4   1.0000     -40.077860     -1090.5740
   5   1.0000     -40.041747     -1089.5913
   6   1.0000     -40.041740     -1089.5911
   7   1.0000     -40.041720     -1089.5906
   8   1.0000     -35.115828      -955.5503
   9   1.0000     -35.111807      -955.4408
  10   1.0000     -35.111807      -955.4408
  11   1.0000     -35.077702      -954.5128
  12   1.0000     -35.077689      -954.5124
  13   1.0000     -35.077684      -954.5123
  14   1.0000     -35.077666      -954.5118
  15   1.0000     -35.077659      -954.5116
  16   1.0000     -35.077653      -954.5115
  17   1.0000     -35.077343      -954.5030
  18   1.0000     -35.077336      -954.5028
  19   1.0000     -35.077325      -954.5025
  20   1.0000      -5.018903      -136.5713
  21   1.0000      -4.992171      -135.8439
  22   1.0000      -4.991791      -135.8335
  23   1.0000      -4.991786      -135.8334
  24   1.0000      -3.436898       -93.5228
  25   1.0000      -3.436897       -93.5227
  26   1.0000      -3.431626       -93.3793
  27   1.0000      -3.413098       -92.8751
  28   1.0000      -3.411347       -92.8275
  29   1.0000      -3.411347       -92.8275
  30   1.0000      -3.410265       -92.7980
  31   1.0000      -3.410231       -92.7971
  32   1.0000      -3.410225       -92.7969
  33   1.0000      -3.409354       -92.7732
  34   1.0000      -3.409152       -92.7677
  35   1.0000      -3.409149       -92.7677
  36   1.0000      -0.819294       -22.2941
  37   1.0000      -0.810010       -22.0415
  38   1.0000      -0.809991       -22.0410
  39   1.0000      -0.795834       -21.6558
  40   1.0000      -0.795477       -21.6460
  41   1.0000      -0.795476       -21.6460
  42   1.0000      -0.783874       -21.3303
  43   1.0000      -0.783874       -21.3303
  44   1.0000      -0.777166       -21.1478
  45   1.0000      -0.769125       -20.9290
  46   1.0000      -0.769120       -20.9288
  47   1.0000      -0.758368       -20.6362
  48   1.0000      -0.757959       -20.6251
  49   1.0000      -0.757232       -20.6053
  50   1.0000      -0.757230       -20.6053
  51   1.0000      -0.753894       -20.5145
  52   1.0000      -0.753880       -20.5141
  53   1.0000      -0.744565       -20.2606
  54   1.0000      -0.744557       -20.2604
  55   1.0000      -0.734806       -19.9951
  56   1.0000      -0.688794       -18.7430
  57   0.0000      -0.466078       -12.6826
  58   0.0000      -0.411105       -11.1867
  59   0.0000      -0.411103       -11.1867
  60   0.0000      -0.363387        -9.8883
  61   0.0000      -0.296065        -8.0563

MULLIKEN ATOMIC CHARGES AND SPIN POPULATIONS
--------------------------------------------
   0 Cu:    0.540965    0.010649
   1 Cu:    0.540964    0.010641
   2 Cu:    0.540963    0.010654
   3 Cu:   -0.084515    0.406036
   4 H :    0.461623    0.562020
Sum of atomic charges         :    2.0000000

LOEWDIN ATOMIC CHARGES AND SPIN POPULATIONS
-------------------------------------------
   0 Cu:    0.492390    0.029293
   1 Cu:    0.492385    0.029293
   2 Cu:    0.492385    0.029293
   3 Cu:    0.392316    0.425957
   4 H :    0.130523    0.486165

  Mayer bond orders larger than 0.100000
B(  0-Cu,  1-Cu) :   0.3033 B(  0-Cu,  2-Cu) :   0.3033 B(  0-Cu,  3-Cu) :   0.2889
B(  1-Cu,  2-Cu) :   0.3033 B(  1-Cu,  3-Cu) :   0.2890 B(  2-Cu,  3-Cu) :   0.2890
B(  3-Cu,  4-H ) :   0.1323

MP2 TOTAL ENERGY:    -6561.332485731 Eh
Dispersion correction           -0.008890201
FINAL SINGLE POINT ENERGY     -6561.341375931886

DIPOLE MOMENT
-------------
                                X             Y             Z
Electronic contribution:     -0.00000       0.00003      -3.19445
Nuclear contribution   :      0.00000       0.00000       3.12710
                        -----------------------------------------
Total Dipole Moment    :     -0.00000       0.00003      -0.06735
                        -----------------------------------------
Magnitude (a.u.)       :      0.06735
Magnitude (Debye)      :      0.17119

Rotational constants in cm-1:     0.044993     0.041927     0.041927
Rotational constants in MHz :  1348.855174  1256.945404  1256.945373

                             ****ORCA TERMINATED NORMALLY****
TOTAL RUN TIME: 0 days 0 hours 0 minutes 28 seconds 683 msec
