                         Program Version 4.2.0 -  RELEASE  -
|  1> #
|  2> # Cu04C2_NH3_A ri-B2PLYP-D3BJ/Def2-TZVPPD
|  3> #
|  4> ! rijk ri-b2plyp d3bj def2-tzvppd def2/jk def2-tzvppd/c grid4 nofinalgrid
|  5>
|  6> *xyz 2 1
|  7> Cu       0.543145   -0.896300    1.192832
|  8> Cu       0.543145   -0.896300   -1.192832
|  9> Cu      -1.492086   -0.543328    0.000000
| 10> Cu       0.211399    1.215580   -0.000000
| 11> N        0.543145    3.129666   -0.000000
| 12> H        0.146420    3.607894   -0.818022
| 13> H        0.146420    3.607894    0.818022
| 14> H        1.542647    3.366638   -0.000000
| 15> *
| 16>
| 17> %maxcore 5000
| 18>
| 19> %pal
| 20> nprocs = 24
| 21> end
| 22>
| 23>
| 24>                          ****END OF INPUT****

CARTESIAN COORDINATES (ANGSTROEM)
---------------------------------
  Cu     0.543145   -0.896300    1.192832
  Cu     0.543145   -0.896300   -1.192832
  Cu    -1.492086   -0.543328    0.000000
  Cu     0.211399    1.215580   -0.000000
  N      0.543145    3.129666   -0.000000
  H      0.146420    3.607894   -0.818022
  H      0.146420    3.607894    0.818022
  H      1.542647    3.366638   -0.000000

 Total Charge           Charge          ....    2
 Multiplicity           Mult            ....    1
 Number of Electrons    NEL             ....  124
 Basis Dimension        Dim             ....  356

ORBITAL ENERGIES
----------------

  NO   OCC          E(Eh)            E(eV)
   0   2.0000    -325.799250     -8865.4483
   1   2.0000    -325.799249     -8865.4483
   2   2.0000    -325.799243     -8865.4481
   3   2.0000    -325.783415     -8865.0174
   4   2.0000     -40.007567     -1088.6612
   5   2.0000     -40.007566     -1088.6612
   6   2.0000     -40.007544     -1088.6606
   7   2.0000     -39.997617     -1088.3905
   8   2.0000     -35.043532      -953.5830
   9   2.0000     -35.043520      -953.5827
  10   2.0000     -35.043518      -953.5826
  11   2.0000     -35.043326      -953.5774
  12   2.0000     -35.043325      -953.5773
  13   2.0000     -35.043317      -953.5771
  14   2.0000     -35.042983      -953.5680
  15   2.0000     -35.042982      -953.5680
  16   2.0000     -35.042971      -953.5677
  17   2.0000     -35.033022      -953.2970
  18   2.0000     -35.033021      -953.2970
  19   2.0000     -35.031751      -953.2624
  20   2.0000     -15.176461      -412.9725
  21   2.0000      -4.958060      -134.9157
  22   2.0000      -4.957577      -134.9025
  23   2.0000      -4.957575      -134.9025
  24   2.0000      -4.944778      -134.5543
  25   2.0000      -3.379564       -91.9626
  26   2.0000      -3.377262       -91.9000
  27   2.0000      -3.377257       -91.8998
  28   2.0000      -3.375796       -91.8601
  29   2.0000      -3.375571       -91.8540
  30   2.0000      -3.375564       -91.8538
  31   2.0000      -3.374874       -91.8350
  32   2.0000      -3.374757       -91.8318
  33   2.0000      -3.374756       -91.8318
  34   2.0000      -3.362871       -91.5084
  35   2.0000      -3.361283       -91.4652
  36   2.0000      -3.361276       -91.4650
  37   2.0000      -1.322393       -35.9842
  38   2.0000      -0.874812       -23.8049
  39   2.0000      -0.874790       -23.8042
  40   2.0000      -0.800572       -21.7847
  41   2.0000      -0.769787       -20.9470
  42   2.0000      -0.757306       -20.6073
  43   2.0000      -0.757296       -20.6071
  44   2.0000      -0.755174       -20.5493
  45   2.0000      -0.749097       -20.3840
  46   2.0000      -0.749089       -20.3838
  47   2.0000      -0.744061       -20.2469
  48   2.0000      -0.737148       -20.0588
  49   2.0000      -0.737126       -20.0582
  50   2.0000      -0.722583       -19.6625
  51   2.0000      -0.720636       -19.6095
  52   2.0000      -0.720635       -19.6095
  53   2.0000      -0.718434       -19.5496
  54   2.0000      -0.718419       -19.5492
  55   2.0000      -0.711985       -19.3741
  56   2.0000      -0.711976       -19.3739
  57   2.0000      -0.698770       -19.0145
  58   2.0000      -0.692249       -18.8371
  59   2.0000      -0.692245       -18.8370
  60   2.0000      -0.669625       -18.2214
  61   2.0000      -0.656052       -17.8521
  62   0.0000      -0.381162       -10.3720
  63   0.0000      -0.381143       -10.3714
  64   0.0000      -0.353194        -9.6109
  65   0.0000      -0.276035        -7.5113
  66   0.0000      -0.255187        -6.9440

MULLIKEN ATOMIC CHARGES
-----------------------
   0 Cu:    0.495383
   1 Cu:    0.495376
   2 Cu:    0.495349
   3 Cu:    0.164892
   4 N :   -0.324961
   5 H :    0.224617
   6 H :    0.224618
   7 H :    0.224726
Sum of atomic charges:    2.0000000

LOEWDIN ATOMIC CHARGES
----------------------
   0 Cu:    0.467926
   1 Cu:    0.467926
   2 Cu:    0.467942
   3 Cu:    0.260808
   4 N :    0.476027
   5 H :   -0.046870
   6 H :   -0.046870
   7 H :   -0.046891

  Mayer bond orders larger than 0.100000
B(  0-Cu,  1-Cu) :   0.3304 B(  0-Cu,  2-Cu) :   0.3305 B(  0-Cu,  3-Cu) :   0.2262
B(  1-Cu,  2-Cu) :   0.3305 B(  1-Cu,  3-Cu) :   0.2261 B(  2-Cu,  3-Cu) :   0.2262
B(  3-Cu,  4-N ) :   0.2983 B(  4-N ,  5-H ) :   0.9812 B(  4-N ,  6-H ) :   0.9812
B(  4-N ,  7-H ) :   0.9812

MP2 TOTAL ENERGY:    -6617.444616251 Eh
Dispersion correction           -0.011036059
FINAL SINGLE POINT ENERGY     -6617.455652310188

DIPOLE MOMENT
-------------
                                X             Y             Z
Electronic contribution:     -2.30664     -13.29391      -0.00000
Nuclear contribution   :      2.54223      14.65497       0.00000
                        -----------------------------------------
Total Dipole Moment    :      0.23559       1.36107      -0.00000
                        -----------------------------------------
Magnitude (a.u.)       :      1.38131
Magnitude (Debye)      :      3.51100

Rotational constants in cm-1:     0.046273     0.029218     0.029214
Rotational constants in MHz :  1387.222495   875.924520   875.809559

                             ****ORCA TERMINATED NORMALLY****
TOTAL RUN TIME: 0 days 0 hours 0 minutes 23 seconds 335 msec
