                         Program Version 4.2.0 -  RELEASE  -
|  1> #
|  2> # Cu04C2_H_F ri-B2PLYP-D3BJ/Def2-TZVPPD
|  3> #
|  4> ! rijk ri-b2plyp d3bj def2-tzvppd def2/jk def2-tzvppd/c grid4 nofinalgrid
|  5>
|  6> *xyz 2 2
|  7> Cu      -0.000000    1.387730   -0.507533
|  8> Cu       1.201809   -0.693865   -0.507533
|  9> Cu      -1.201809   -0.693865   -0.507533
| 10> Cu       0.000000    0.000000    1.576640
| 11> H        0.000000    0.000000   -1.567185
| 12> *
| 13>
| 14> %maxcore 5000
| 15>
| 16> %pal
| 17> nprocs = 24
| 18> end
| 19>
| 20>
| 21>                          ****END OF INPUT****

CARTESIAN COORDINATES (ANGSTROEM)
---------------------------------
  Cu    -0.000000    1.387730   -0.507533
  Cu     1.201809   -0.693865   -0.507533
  Cu    -1.201809   -0.693865   -0.507533
  Cu     0.000000    0.000000    1.576640
  H      0.000000    0.000000   -1.567185

 Total Charge           Charge          ....    2
 Multiplicity           Mult            ....    2
 Number of Electrons    NEL             ....  115
 Basis Dimension        Dim             ....  285

ORBITAL ENERGIES
----------------
                 SPIN UP ORBITALS
  NO   OCC          E(Eh)            E(eV)
   0   1.0000    -325.852033     -8866.8846
   1   1.0000    -325.852032     -8866.8846
   2   1.0000    -325.852025     -8866.8844
   3   1.0000    -325.827315     -8866.2120
   4   1.0000     -40.061570     -1090.1307
   5   1.0000     -40.061569     -1090.1307
   6   1.0000     -40.061545     -1090.1301
   7   1.0000     -40.034615     -1089.3973
   8   1.0000     -35.097804      -955.0598
   9   1.0000     -35.097804      -955.0598
  10   1.0000     -35.097795      -955.0595
  11   1.0000     -35.097382      -955.0483
  12   1.0000     -35.097382      -955.0483
  13   1.0000     -35.097373      -955.0481
  14   1.0000     -35.096808      -955.0327
  15   1.0000     -35.096795      -955.0323
  16   1.0000     -35.096794      -955.0323
  17   1.0000     -35.070223      -954.3093
  18   1.0000     -35.070034      -954.3041
  19   1.0000     -35.070034      -954.3041
  20   1.0000      -5.013181      -136.4156
  21   1.0000      -5.012736      -136.4035
  22   1.0000      -5.012735      -136.4035
  23   1.0000      -4.984834      -135.6442
  24   1.0000      -3.436488       -93.5116
  25   1.0000      -3.433504       -93.4304
  26   1.0000      -3.433503       -93.4304
  27   1.0000      -3.432161       -93.3939
  28   1.0000      -3.431751       -93.3827
  29   1.0000      -3.431749       -93.3826
  30   1.0000      -3.429512       -93.3218
  31   1.0000      -3.429510       -93.3217
  32   1.0000      -3.428475       -93.2935
  33   1.0000      -3.403033       -92.6012
  34   1.0000      -3.401605       -92.5624
  35   1.0000      -3.401604       -92.5623
  36   1.0000      -0.905517       -24.6404
  37   1.0000      -0.835901       -22.7460
  38   1.0000      -0.809203       -22.0195
  39   1.0000      -0.809193       -22.0193
  40   1.0000      -0.802675       -21.8419
  41   1.0000      -0.802671       -21.8418
  42   1.0000      -0.799522       -21.7561
  43   1.0000      -0.787012       -21.4157
  44   1.0000      -0.787006       -21.4155
  45   1.0000      -0.779245       -21.2043
  46   1.0000      -0.779240       -21.2042
  47   1.0000      -0.775867       -21.1124
  48   1.0000      -0.775433       -21.1006
  49   1.0000      -0.773272       -21.0418
  50   1.0000      -0.773264       -21.0416
  51   1.0000      -0.756221       -20.5778
  52   1.0000      -0.756215       -20.5777
  53   1.0000      -0.753235       -20.4966
  54   1.0000      -0.746725       -20.3194
  55   1.0000      -0.743162       -20.2225
  56   1.0000      -0.743145       -20.2220
  57   1.0000      -0.616497       -16.7757
  58   0.0000      -0.421512       -11.4699
  59   0.0000      -0.421511       -11.4699
  60   0.0000      -0.340689        -9.2706
  61   0.0000      -0.314882        -8.5684
  62   0.0000      -0.290475        -7.9042

                 SPIN DOWN ORBITALS
  NO   OCC          E(Eh)            E(eV)
   0   1.0000    -325.851834     -8866.8792
   1   1.0000    -325.851833     -8866.8792
   2   1.0000    -325.851826     -8866.8790
   3   1.0000    -325.826320     -8866.1849
   4   1.0000     -40.059472     -1090.0737
   5   1.0000     -40.059471     -1090.0736
   6   1.0000     -40.059447     -1090.0730
   7   1.0000     -40.035210     -1089.4135
   8   1.0000     -35.096241      -955.0173
   9   1.0000     -35.096228      -955.0169
  10   1.0000     -35.096227      -955.0169
  11   1.0000     -35.095208      -954.9892
  12   1.0000     -35.095207      -954.9891
  13   1.0000     -35.095196      -954.9888
  14   1.0000     -35.094483      -954.9694
  15   1.0000     -35.094483      -954.9694
  16   1.0000     -35.094469      -954.9690
  17   1.0000     -35.071428      -954.3421
  18   1.0000     -35.071089      -954.3328
  19   1.0000     -35.071089      -954.3328
  20   1.0000      -5.008721      -136.2942
  21   1.0000      -5.008277      -136.2822
  22   1.0000      -5.008276      -136.2821
  23   1.0000      -4.984986      -135.6484
  24   1.0000      -3.429804       -93.3297
  25   1.0000      -3.428872       -93.3044
  26   1.0000      -3.428872       -93.3043
  27   1.0000      -3.427086       -93.2558
  28   1.0000      -3.426075       -93.2282
  29   1.0000      -3.426071       -93.2281
  30   1.0000      -3.424756       -93.1923
  31   1.0000      -3.424453       -93.1841
  32   1.0000      -3.424450       -93.1840
  33   1.0000      -3.405920       -92.6798
  34   1.0000      -3.403596       -92.6165
  35   1.0000      -3.403595       -92.6165
  36   1.0000      -0.874228       -23.7889
  37   1.0000      -0.825047       -22.4507
  38   1.0000      -0.807683       -21.9782
  39   1.0000      -0.807674       -21.9779
  40   1.0000      -0.796887       -21.6844
  41   1.0000      -0.796880       -21.6842
  42   1.0000      -0.795576       -21.6487
  43   1.0000      -0.784989       -21.3607
  44   1.0000      -0.784983       -21.3605
  45   1.0000      -0.774129       -21.0651
  46   1.0000      -0.772196       -21.0125
  47   1.0000      -0.772183       -21.0122
  48   1.0000      -0.764967       -20.8158
  49   1.0000      -0.759376       -20.6637
  50   1.0000      -0.759374       -20.6636
  51   1.0000      -0.756648       -20.5894
  52   1.0000      -0.756643       -20.5893
  53   1.0000      -0.751095       -20.4383
  54   1.0000      -0.739612       -20.1259
  55   1.0000      -0.739597       -20.1255
  56   1.0000      -0.734696       -19.9921
  57   0.0000      -0.460922       -12.5423
  58   0.0000      -0.411965       -11.2101
  59   0.0000      -0.411965       -11.2101
  60   0.0000      -0.327024        -8.8988
  61   0.0000      -0.304277        -8.2798

MULLIKEN ATOMIC CHARGES AND SPIN POPULATIONS
--------------------------------------------
   0 Cu:    0.458720    0.041291
   1 Cu:    0.458642    0.041283
   2 Cu:    0.458657    0.041295
   3 Cu:    0.396782    0.563063
   4 H :    0.227199    0.313068
Sum of atomic charges         :    2.0000000

LOEWDIN ATOMIC CHARGES AND SPIN POPULATIONS
-------------------------------------------
   0 Cu:    0.478337    0.218309
   1 Cu:    0.478332    0.218312
   2 Cu:    0.478333    0.218312
   3 Cu:    0.547383    0.189402
   4 H :    0.017615    0.155664

  Mayer bond orders larger than 0.100000
B(  0-Cu,  1-Cu) :   0.3529 B(  0-Cu,  2-Cu) :   0.3529 B(  0-Cu,  3-Cu) :   0.2347
B(  0-Cu,  4-H ) :   0.2003 B(  1-Cu,  2-Cu) :   0.3529 B(  1-Cu,  3-Cu) :   0.2347
B(  1-Cu,  4-H ) :   0.2003 B(  2-Cu,  3-Cu) :   0.2347 B(  2-Cu,  4-H ) :   0.2003

MP2 TOTAL ENERGY:    -6561.354368501 Eh
Dispersion correction           -0.009340046
FINAL SINGLE POINT ENERGY     -6561.363708547768

DIPOLE MOMENT
-------------
                                X             Y             Z
Electronic contribution:     -0.00000       0.00001       1.67238
Nuclear contribution   :      0.00000       0.00000      -1.60670
                        -----------------------------------------
Total Dipole Moment    :     -0.00000       0.00001       0.06568
                        -----------------------------------------
Magnitude (a.u.)       :      0.06568
Magnitude (Debye)      :      0.16695

Rotational constants in cm-1:     0.045915     0.042882     0.042882
Rotational constants in MHz :  1376.483459  1285.559854  1285.559421

                             ****ORCA TERMINATED NORMALLY****
TOTAL RUN TIME: 0 days 0 hours 0 minutes 24 seconds 561 msec
