                         Program Version 4.2.0 -  RELEASE  -
|  1> #
|  2> # Cu04C2_H_E ri-B2PLYP-D3BJ/Def2-TZVPPD
|  3> #
|  4> ! rijk ri-b2plyp d3bj def2-tzvppd def2/jk def2-tzvppd/c grid4 nofinalgrid
|  5>
|  6> *xyz 2 2
|  7> Cu      -0.967673    0.056725    1.180703
|  8> Cu      -0.972439   -0.054931   -1.177653
|  9> Cu       0.936359    1.185605   -0.057167
| 10> Cu       0.933653   -1.187345    0.053806
| 11> H        2.032882   -0.001578    0.009000
| 12> *
| 13>
| 14> %maxcore 5000
| 15>
| 16> %pal
| 17> nprocs = 24
| 18> end
| 19>
| 20>
| 21>                          ****END OF INPUT****

CARTESIAN COORDINATES (ANGSTROEM)
---------------------------------
  Cu    -0.967673    0.056725    1.180703
  Cu    -0.972439   -0.054931   -1.177653
  Cu     0.936359    1.185605   -0.057167
  Cu     0.933653   -1.187345    0.053806
  H      2.032882   -0.001578    0.009000

 Total Charge           Charge          ....    2
 Multiplicity           Mult            ....    2
 Number of Electrons    NEL             ....  115
 Basis Dimension        Dim             ....  285

ORBITAL ENERGIES
----------------
                 SPIN UP ORBITALS
  NO   OCC          E(Eh)            E(eV)
   0   1.0000    -325.855586     -8866.9813
   1   1.0000    -325.855575     -8866.9810
   2   1.0000    -325.836522     -8866.4625
   3   1.0000    -325.836493     -8866.4617
   4   1.0000     -40.068810     -1090.3277
   5   1.0000     -40.068791     -1090.3272
   6   1.0000     -40.043637     -1089.6428
   7   1.0000     -40.043607     -1089.6419
   8   1.0000     -35.106599      -955.2991
   9   1.0000     -35.106584      -955.2987
  10   1.0000     -35.104024      -955.2291
  11   1.0000     -35.104010      -955.2287
  12   1.0000     -35.101798      -955.1685
  13   1.0000     -35.101784      -955.1681
  14   1.0000     -35.079570      -954.5636
  15   1.0000     -35.079539      -954.5628
  16   1.0000     -35.079336      -954.5573
  17   1.0000     -35.079306      -954.5564
  18   1.0000     -35.079213      -954.5539
  19   1.0000     -35.079183      -954.5531
  20   1.0000      -5.019472      -136.5868
  21   1.0000      -5.019133      -136.5775
  22   1.0000      -4.994776      -135.9148
  23   1.0000      -4.994406      -135.9047
  24   1.0000      -3.445258       -93.7502
  25   1.0000      -3.443184       -93.6938
  26   1.0000      -3.438256       -93.5597
  27   1.0000      -3.436822       -93.5207
  28   1.0000      -3.431875       -93.3861
  29   1.0000      -3.431599       -93.3786
  30   1.0000      -3.416027       -92.9548
  31   1.0000      -3.412635       -92.8625
  32   1.0000      -3.412212       -92.8510
  33   1.0000      -3.412002       -92.8453
  34   1.0000      -3.411838       -92.8408
  35   1.0000      -3.411754       -92.8385
  36   1.0000      -0.881804       -23.9951
  37   1.0000      -0.832624       -22.6569
  38   1.0000      -0.810548       -22.0561
  39   1.0000      -0.809729       -22.0338
  40   1.0000      -0.805169       -21.9098
  41   1.0000      -0.797100       -21.6902
  42   1.0000      -0.795911       -21.6578
  43   1.0000      -0.793480       -21.5917
  44   1.0000      -0.790603       -21.5134
  45   1.0000      -0.778577       -21.1862
  46   1.0000      -0.777155       -21.1475
  47   1.0000      -0.776860       -21.1394
  48   1.0000      -0.774808       -21.0836
  49   1.0000      -0.771618       -20.9968
  50   1.0000      -0.764569       -20.8050
  51   1.0000      -0.758633       -20.6434
  52   1.0000      -0.757377       -20.6093
  53   1.0000      -0.754891       -20.5416
  54   1.0000      -0.748241       -20.3607
  55   1.0000      -0.745978       -20.2991
  56   1.0000      -0.742716       -20.2103
  57   1.0000      -0.640943       -17.4409
  58   0.0000      -0.419793       -11.4231
  59   0.0000      -0.413139       -11.2421
  60   0.0000      -0.357616        -9.7312
  61   0.0000      -0.309688        -8.4270
  62   0.0000      -0.297595        -8.0980

                 SPIN DOWN ORBITALS
  NO   OCC          E(Eh)            E(eV)
   0   1.0000    -325.855353     -8866.9749
   1   1.0000    -325.855342     -8866.9746
   2   1.0000    -325.835983     -8866.4479
   3   1.0000    -325.835949     -8866.4469
   4   1.0000     -40.064389     -1090.2074
   5   1.0000     -40.064369     -1090.2069
   6   1.0000     -40.043632     -1089.6426
   7   1.0000     -40.043611     -1089.6421
   8   1.0000     -35.100109      -955.1225
   9   1.0000     -35.100092      -955.1221
  10   1.0000     -35.100086      -955.1219
  11   1.0000     -35.100072      -955.1215
  12   1.0000     -35.099624      -955.1093
  13   1.0000     -35.099605      -955.1088
  14   1.0000     -35.079807      -954.5701
  15   1.0000     -35.079785      -954.5695
  16   1.0000     -35.079775      -954.5692
  17   1.0000     -35.079756      -954.5687
  18   1.0000     -35.079344      -954.5575
  19   1.0000     -35.079333      -954.5572
  20   1.0000      -5.010116      -136.3322
  21   1.0000      -5.009782      -136.3231
  22   1.0000      -4.994187      -135.8987
  23   1.0000      -4.993824      -135.8889
  24   1.0000      -3.428884       -93.3047
  25   1.0000      -3.427999       -93.2806
  26   1.0000      -3.427730       -93.2733
  27   1.0000      -3.426547       -93.2411
  28   1.0000      -3.425875       -93.2228
  29   1.0000      -3.424829       -93.1943
  30   1.0000      -3.415198       -92.9323
  31   1.0000      -3.413687       -92.8911
  32   1.0000      -3.413246       -92.8792
  33   1.0000      -3.412856       -92.8685
  34   1.0000      -3.412658       -92.8631
  35   1.0000      -3.411268       -92.8253
  36   1.0000      -0.833997       -22.6942
  37   1.0000      -0.821117       -22.3437
  38   1.0000      -0.806562       -21.9477
  39   1.0000      -0.804652       -21.8957
  40   1.0000      -0.800159       -21.7734
  41   1.0000      -0.792697       -21.5704
  42   1.0000      -0.792219       -21.5574
  43   1.0000      -0.790367       -21.5070
  44   1.0000      -0.779531       -21.2121
  45   1.0000      -0.773208       -21.0401
  46   1.0000      -0.771934       -21.0054
  47   1.0000      -0.771440       -20.9920
  48   1.0000      -0.767984       -20.8979
  49   1.0000      -0.763903       -20.7869
  50   1.0000      -0.762574       -20.7507
  51   1.0000      -0.758451       -20.6385
  52   1.0000      -0.756597       -20.5881
  53   1.0000      -0.749035       -20.3823
  54   1.0000      -0.739951       -20.1351
  55   1.0000      -0.723788       -19.6953
  56   1.0000      -0.717831       -19.5332
  57   0.0000      -0.475906       -12.9501
  58   0.0000      -0.410469       -11.1694
  59   0.0000      -0.408341       -11.1115
  60   0.0000      -0.332448        -9.0464
  61   0.0000      -0.306422        -8.3382

MULLIKEN ATOMIC CHARGES AND SPIN POPULATIONS
--------------------------------------------
   0 Cu:    0.427516    0.276384
   1 Cu:    0.426770    0.279659
   2 Cu:    0.373947    0.021629
   3 Cu:    0.373681    0.021653
   4 H :    0.398085    0.400675
Sum of atomic charges         :    2.0000000

LOEWDIN ATOMIC CHARGES AND SPIN POPULATIONS
-------------------------------------------
   0 Cu:    0.519660    0.132212
   1 Cu:    0.520066    0.132291
   2 Cu:    0.467114    0.269048
   3 Cu:    0.466945    0.269140
   4 H :    0.026215    0.197310

  Mayer bond orders larger than 0.100000
B(  0-Cu,  1-Cu) :   0.5124 B(  0-Cu,  2-Cu) :   0.2285 B(  0-Cu,  3-Cu) :   0.2287
B(  1-Cu,  2-Cu) :   0.2273 B(  1-Cu,  3-Cu) :   0.2278 B(  2-Cu,  3-Cu) :   0.5487
B(  2-Cu,  4-H ) :   0.2450 B(  3-Cu,  4-H ) :   0.2448

MP2 TOTAL ENERGY:    -6561.356506569 Eh
Dispersion correction           -0.009221851
FINAL SINGLE POINT ENERGY     -6561.365728420772

DIPOLE MOMENT
-------------
                                X             Y             Z
Electronic contribution:     -2.38544       0.00222      -0.01102
Nuclear contribution   :      2.08414      -0.00162       0.00923
                        -----------------------------------------
Total Dipole Moment    :     -0.30130       0.00061      -0.00179
                        -----------------------------------------
Magnitude (a.u.)       :      0.30131
Magnitude (Debye)      :      0.76587

Rotational constants in cm-1:     0.047295     0.040918     0.040701
Rotational constants in MHz :  1417.862725  1226.705268  1220.194326

                             ****ORCA TERMINATED NORMALLY****
TOTAL RUN TIME: 0 days 0 hours 0 minutes 23 seconds 462 msec
