                         Program Version 4.2.0 -  RELEASE  -
|  1> #
|  2> # NH3 ri-B2PLYP-D3BJ/Def2-TZVPPD
|  3> #
|  4> ! rijk ri-b2plyp d3bj def2-tzvppd def2/jk def2-tzvppd/c grid4 nofinalgrid
|  5>
|  6> *xyz 0 1
|  7> N       -0.000000    0.125670    0.000000
|  8> H       -0.933163   -0.293418    0.000000
|  9> H        0.466582   -0.293138    0.808252
| 10> H        0.466582   -0.293138   -0.808252
| 11> *
| 12>
| 13> %maxcore 5000
| 14>
| 15> %pal
| 16> nprocs = 24
| 17> end
| 18>
| 19>
| 20>                          ****END OF INPUT****

CARTESIAN COORDINATES (ANGSTROEM)
---------------------------------
  N     -0.000000    0.125670    0.000000
  H     -0.933163   -0.293418    0.000000
  H      0.466582   -0.293138    0.808252
  H      0.466582   -0.293138   -0.808252

 Total Charge           Charge          ....    0
 Multiplicity           Mult            ....    1
 Number of Electrons    NEL             ....   10
 Basis Dimension        Dim             ....   88

ORBITAL ENERGIES
----------------

  NO   OCC          E(Eh)            E(eV)
   0   2.0000     -14.821917      -403.3249
   1   2.0000      -0.974398       -26.5147
   2   2.0000      -0.527006       -14.3406
   3   2.0000      -0.526953       -14.3391
   4   2.0000      -0.344585        -9.3766
   5   0.0000       0.033502         0.9116
   6   0.0000       0.113327         3.0838
   7   0.0000       0.113332         3.0839
   8   0.0000       0.157892         4.2965
   9   0.0000       0.175619         4.7788

MULLIKEN ATOMIC CHARGES
-----------------------
   0 N :   -0.356655
   1 H :    0.118844
   2 H :    0.118905
   3 H :    0.118905
Sum of atomic charges:   -0.0000000

LOEWDIN ATOMIC CHARGES
----------------------
   0 N :    0.437753
   1 H :   -0.145902
   2 H :   -0.145926
   3 H :   -0.145926

  Mayer bond orders larger than 0.100000
B(  0-N ,  1-H ) :   1.0152 B(  0-N ,  2-H ) :   1.0152 B(  0-N ,  3-H ) :   1.0152

MP2 TOTAL ENERGY:      -56.538079932 Eh
Dispersion correction           -0.000498812
FINAL SINGLE POINT ENERGY       -56.538578743820

DIPOLE MOMENT
-------------
                                X             Y             Z
Electronic contribution:      0.00007       0.31321       0.00000
Nuclear contribution   :      0.00000      -0.96926       0.00000
                        -----------------------------------------
Total Dipole Moment    :      0.00007      -0.65605       0.00000
                        -----------------------------------------
Magnitude (a.u.)       :      0.65605
Magnitude (Debye)      :      1.66755

Rotational constants in cm-1:     9.616093     9.614148     6.400903
Rotational constants in MHz : 288283.214631 288224.911301 191894.257358

                             ****ORCA TERMINATED NORMALLY****
TOTAL RUN TIME: 0 days 0 hours 0 minutes 3 seconds 164 msec
