                         Program Version 4.2.0 -  RELEASE  -
|  1> #
|  2> # Ag01N0 M06-D3BJ/Def2-TZVPPD
|  3> #
|  4> ! m06 d3zero def2-tzvppd def2/jk grid4 nofinalgrid
|  5>
|  6> *xyz 0 2
|  7> Ag       0.000000    0.000000    0.000000
|  8> *
|  9>
| 10> %maxcore 5000
| 11>
| 12> %pal
| 13> nprocs = 24
| 14> end
| 15>
| 16>
| 17>                          ****END OF INPUT****

CARTESIAN COORDINATES (ANGSTROEM)
---------------------------------
  Ag     0.000000    0.000000    0.000000

 Total Charge           Charge          ....    0
 Multiplicity           Mult            ....    2
 Number of Electrons    NEL             ....   19
 Basis Dimension        Dim             ....   56

ORBITAL ENERGIES
----------------
                 SPIN UP ORBITALS
  NO   OCC          E(Eh)            E(eV)
   0   1.0000      -3.721119      -101.2568
   1   1.0000      -2.327948       -63.3467
   2   1.0000      -2.327948       -63.3467
   3   1.0000      -2.327948       -63.3467
   4   1.0000      -0.344037        -9.3617
   5   1.0000      -0.344037        -9.3617
   6   1.0000      -0.344037        -9.3617
   7   1.0000      -0.344037        -9.3617
   8   1.0000      -0.344037        -9.3617
   9   1.0000      -0.197585        -5.3766
  10   0.0000      -0.016904        -0.4600
  11   0.0000      -0.016904        -0.4600
  12   0.0000      -0.016904        -0.4600
  13   0.0000       0.074187         2.0187
  14   0.0000       0.156829         4.2675

                 SPIN DOWN ORBITALS
  NO   OCC          E(Eh)            E(eV)
   0   1.0000      -3.717651      -101.1624
   1   1.0000      -2.325273       -63.2739
   2   1.0000      -2.325273       -63.2739
   3   1.0000      -2.325273       -63.2739
   4   1.0000      -0.341009        -9.2793
   5   1.0000      -0.341009        -9.2793
   6   1.0000      -0.341009        -9.2793
   7   1.0000      -0.341009        -9.2793
   8   1.0000      -0.341009        -9.2793
   9   0.0000      -0.117168        -3.1883
  10   0.0000       0.010918         0.2971
  11   0.0000       0.010918         0.2971
  12   0.0000       0.010918         0.2971
  13   0.0000       0.106246         2.8911

MULLIKEN ATOMIC CHARGES AND SPIN POPULATIONS
--------------------------------------------
   0 Ag:    0.000000    1.000000
Sum of atomic charges         :    0.0000000

LOEWDIN ATOMIC CHARGES AND SPIN POPULATIONS
-------------------------------------------
   0 Ag:    0.000000    1.000000

Dispersion correction            0.000000000
FINAL SINGLE POINT ENERGY      -147.012228689540

DIPOLE MOMENT
-------------
                                X             Y             Z
Electronic contribution:     -0.00000       0.00000      -0.00000
Nuclear contribution   :      0.00000       0.00000       0.00000
                        -----------------------------------------
Total Dipole Moment    :     -0.00000       0.00000      -0.00000
                        -----------------------------------------
Magnitude (a.u.)       :      0.00000
Magnitude (Debye)      :      0.00000

Rotational constants in cm-1:     0.000000     0.000000     0.000000
Rotational constants in MHz :     0.000000     0.000000     0.000000

                             ****ORCA TERMINATED NORMALLY****
TOTAL RUN TIME: 0 days 0 hours 0 minutes 5 seconds 367 msec
