                         Program Version 4.2.0 -  RELEASE  -
|  1> #
|  2> # Ag01N0_F M06-D3BJ/Def2-TZVPPD
|  3> #
|  4> ! m06 d3zero def2-tzvppd def2/jk grid4 nofinalgrid
|  5>
|  6> *xyz 0 1
|  7> Ag       0.000000    0.000000    0.317712
|  8> F        0.000000    0.000000   -1.659163
|  9> *
| 10>
| 11> %maxcore 5000
| 12>
| 13> %pal
| 14> nprocs = 24
| 15> end
| 16>
| 17>
| 18>                          ****END OF INPUT****

CARTESIAN COORDINATES (ANGSTROEM)
---------------------------------
  Ag     0.000000    0.000000    0.317712
  F      0.000000    0.000000   -1.659163

 Total Charge           Charge          ....    0
 Multiplicity           Mult            ....    1
 Number of Electrons    NEL             ....   28
 Basis Dimension        Dim             ....   96

ORBITAL ENERGIES
----------------

  NO   OCC          E(Eh)            E(eV)
   0   2.0000     -24.650044      -670.7618
   1   2.0000      -3.756586      -102.2219
   2   2.0000      -2.365665       -64.3730
   3   2.0000      -2.365665       -64.3730
   4   2.0000      -2.361606       -64.2626
   5   2.0000      -1.069656       -29.1068
   6   2.0000      -0.418176       -11.3792
   7   2.0000      -0.393532       -10.7085
   8   2.0000      -0.393532       -10.7085
   9   2.0000      -0.380027       -10.3411
  10   2.0000      -0.380026       -10.3410
  11   2.0000      -0.304332        -8.2813
  12   2.0000      -0.304332        -8.2813
  13   2.0000      -0.302551        -8.2328
  14   0.0000      -0.117642        -3.2012
  15   0.0000      -0.019973        -0.5435
  16   0.0000      -0.019973        -0.5435
  17   0.0000       0.005208         0.1417
  18   0.0000       0.040791         1.1100

MULLIKEN ATOMIC CHARGES
-----------------------
   0 Ag:    0.643474
   1 F :   -0.643474
Sum of atomic charges:   -0.0000000

LOEWDIN ATOMIC CHARGES
----------------------
   0 Ag:    0.714587
   1 F :   -0.714587

  Mayer bond orders larger than 0.100000
B(  0-Ag,  1-F ) :   0.5650

Dispersion correction           -0.000000538
FINAL SINGLE POINT ENERGY      -246.870021558000

DIPOLE MOMENT
-------------
                                X             Y             Z
Electronic contribution:      0.00000      -0.00000      20.22703
Nuclear contribution   :      0.00000       0.00000     -17.95816
                        -----------------------------------------
Total Dipole Moment    :      0.00000      -0.00000       2.26887
                        -----------------------------------------
Magnitude (a.u.)       :      2.26887
Magnitude (Debye)      :      5.76700

Rotational constants in cm-1:     0.000000     0.267044     0.267044
Rotational constants in MHz :     0.000000  8005.762772  8005.762772

                             ****ORCA TERMINATED NORMALLY****
TOTAL RUN TIME: 0 days 0 hours 0 minutes 5 seconds 822 msec
