                         Program Version 4.2.0 -  RELEASE  -
|  1> #
|  2> # Ag01N0_H M06-D3BJ/Def2-TZVPPD
|  3> #
|  4> ! m06 d3zero def2-tzvppd def2/jk grid4 nofinalgrid
|  5>
|  6> *xyz 0 1
|  7> Ag       0.000000    0.000000    0.033547
|  8> H        0.000000    0.000000   -1.576706
|  9> *
| 10>
| 11> %maxcore 5000
| 12>
| 13> %pal
| 14> nprocs = 24
| 15> end
| 16>
| 17>
| 18>                          ****END OF INPUT****

CARTESIAN COORDINATES (ANGSTROEM)
---------------------------------
  Ag     0.000000    0.000000    0.033547
  H      0.000000    0.000000   -1.576706

 Total Charge           Charge          ....    0
 Multiplicity           Mult            ....    1
 Number of Electrons    NEL             ....   20
 Basis Dimension        Dim             ....   73

ORBITAL ENERGIES
----------------

  NO   OCC          E(Eh)            E(eV)
   0   2.0000      -3.739070      -101.7453
   1   2.0000      -2.348728       -63.9121
   2   2.0000      -2.343930       -63.7816
   3   2.0000      -2.343930       -63.7816
   4   2.0000      -0.403052       -10.9676
   5   2.0000      -0.360442        -9.8081
   6   2.0000      -0.360442        -9.8081
   7   2.0000      -0.354681        -9.6514
   8   2.0000      -0.354680        -9.6513
   9   2.0000      -0.257167        -6.9979
  10   0.0000      -0.078144        -2.1264
  11   0.0000      -0.018439        -0.5018
  12   0.0000      -0.018439        -0.5018
  13   0.0000       0.040555         1.1036
  14   0.0000       0.056129         1.5273

MULLIKEN ATOMIC CHARGES
-----------------------
   0 Ag:    0.057901
   1 H :   -0.057901
Sum of atomic charges:    0.0000000

LOEWDIN ATOMIC CHARGES
----------------------
   0 Ag:    0.314289
   1 H :   -0.314289

  Mayer bond orders larger than 0.100000
B(  0-Ag,  1-H ) :   1.0675

Dispersion correction           -0.000000054
FINAL SINGLE POINT ENERGY      -147.597716918471

DIPOLE MOMENT
-------------
                                X             Y             Z
Electronic contribution:     -0.00000      -0.00000       3.55092
Nuclear contribution   :      0.00000       0.00000      -2.47950
                        -----------------------------------------
Total Dipole Moment    :     -0.00000      -0.00000       1.07141
                        -----------------------------------------
Magnitude (a.u.)       :      1.07141
Magnitude (Debye)      :      2.72331

Rotational constants in cm-1:     0.000000     6.510099     6.510099
Rotational constants in MHz :     0.000000 195167.857171 195167.857171

                             ****ORCA TERMINATED NORMALLY****
TOTAL RUN TIME: 0 days 0 hours 0 minutes 5 seconds 728 msec
