                         Program Version 4.2.0 -  RELEASE  -
|  1> #
|  2> # Ag02N0 M06-D3BJ/Def2-TZVPPD
|  3> #
|  4> ! m06 d3zero def2-tzvppd def2/jk grid4 nofinalgrid
|  5>
|  6> *xyz 0 1
|  7> Ag       0.000000    0.000000    1.261821
|  8> Ag       0.000000    0.000000   -1.261821
|  9> *
| 10>
| 11> %maxcore 5000
| 12>
| 13> %pal
| 14> nprocs = 24
| 15> end
| 16>
| 17>
| 18>                          ****END OF INPUT****

CARTESIAN COORDINATES (ANGSTROEM)
---------------------------------
  Ag     0.000000    0.000000    1.261821
  Ag     0.000000    0.000000   -1.261821

 Total Charge           Charge          ....    0
 Multiplicity           Mult            ....    1
 Number of Electrons    NEL             ....   38
 Basis Dimension        Dim             ....  112

ORBITAL ENERGIES
----------------

  NO   OCC          E(Eh)            E(eV)
   0   2.0000      -3.717856      -101.1680
   1   2.0000      -3.717176      -101.1495
   2   2.0000      -2.329849       -63.3984
   3   2.0000      -2.323949       -63.2379
   4   2.0000      -2.323949       -63.2379
   5   2.0000      -2.323310       -63.2205
   6   2.0000      -2.323310       -63.2205
   7   2.0000      -2.322580       -63.2006
   8   2.0000      -0.378260       -10.2930
   9   2.0000      -0.361053        -9.8247
  10   2.0000      -0.361053        -9.8247
  11   2.0000      -0.341260        -9.2862
  12   2.0000      -0.341253        -9.2860
  13   2.0000      -0.333367        -9.0714
  14   2.0000      -0.333361        -9.0712
  15   2.0000      -0.321774        -8.7559
  16   2.0000      -0.321774        -8.7559
  17   2.0000      -0.314971        -8.5708
  18   2.0000      -0.219292        -5.9672
  19   0.0000      -0.092016        -2.5039
  20   0.0000      -0.026205        -0.7131
  21   0.0000      -0.026205        -0.7131
  22   0.0000      -0.007306        -0.1988
  23   0.0000       0.025595         0.6965

MULLIKEN ATOMIC CHARGES
-----------------------
   0 Ag:   -0.000001
   1 Ag:    0.000001
Sum of atomic charges:   -0.0000000

LOEWDIN ATOMIC CHARGES
----------------------
   0 Ag:   -0.000000
   1 Ag:    0.000000

  Mayer bond orders larger than 0.100000
B(  0-Ag,  1-Ag) :   1.0409

Dispersion correction           -0.000001538
FINAL SINGLE POINT ENERGY      -294.090485708197

DIPOLE MOMENT
-------------
                                X             Y             Z
Electronic contribution:      0.00000       0.00000       0.00000
Nuclear contribution   :      0.00000       0.00000       0.00000
                        -----------------------------------------
Total Dipole Moment    :      0.00000       0.00000       0.00000
                        -----------------------------------------
Magnitude (a.u.)       :      0.00000
Magnitude (Debye)      :      0.00000

Rotational constants in cm-1:     0.000000     0.049076     0.049076
Rotational constants in MHz :     0.000000  1471.266775  1471.266775

                             ****ORCA TERMINATED NORMALLY****
TOTAL RUN TIME: 0 days 0 hours 0 minutes 7 seconds 86 msec
