                         Program Version 4.2.0 -  RELEASE  -
|  1> #
|  2> # Ag03C1_LIN M06-D3BJ/Def2-TZVPPD
|  3> #
|  4> ! m06 d3zero def2-tzvppd def2/jk grid4 nofinalgrid
|  5>
|  6> *xyz 1 1
|  7> Ag       0.000000    0.000000    0.000000
|  8> Ag       0.000000    0.000000    2.629319
|  9> Ag       0.000000    0.000000   -2.629319
| 10> *
| 11>
| 12> %maxcore 5000
| 13>
| 14> %pal
| 15> nprocs = 24
| 16> end
| 17>
| 18>
| 19>                          ****END OF INPUT****

CARTESIAN COORDINATES (ANGSTROEM)
---------------------------------
  Ag     0.000000    0.000000    0.000000
  Ag     0.000000    0.000000    2.629319
  Ag     0.000000    0.000000   -2.629319

 Total Charge           Charge          ....    1
 Multiplicity           Mult            ....    1
 Number of Electrons    NEL             ....   56
 Basis Dimension        Dim             ....  168

ORBITAL ENERGIES
----------------

  NO   OCC          E(Eh)            E(eV)
   0   2.0000      -3.924010      -106.7777
   1   2.0000      -3.924009      -106.7777
   2   2.0000      -3.884767      -105.7099
   3   2.0000      -2.533486       -68.9397
   4   2.0000      -2.533181       -68.9314
   5   2.0000      -2.531490       -68.8853
   6   2.0000      -2.531490       -68.8853
   7   2.0000      -2.531481       -68.8851
   8   2.0000      -2.531481       -68.8851
   9   2.0000      -2.495395       -67.9031
  10   2.0000      -2.489484       -67.7423
  11   2.0000      -2.489484       -67.7423
  12   2.0000      -0.579727       -15.7752
  13   2.0000      -0.558978       -15.2106
  14   2.0000      -0.558978       -15.2106
  15   2.0000      -0.552004       -15.0208
  16   2.0000      -0.549458       -14.9515
  17   2.0000      -0.549458       -14.9515
  18   2.0000      -0.546353       -14.8670
  19   2.0000      -0.546352       -14.8670
  20   2.0000      -0.545973       -14.8567
  21   2.0000      -0.545972       -14.8567
  22   2.0000      -0.500411       -13.6169
  23   2.0000      -0.500407       -13.6168
  24   2.0000      -0.498777       -13.5724
  25   2.0000      -0.498777       -13.5724
  26   2.0000      -0.494115       -13.4456
  27   2.0000      -0.399284       -10.8651
  28   0.0000      -0.317688        -8.6447
  29   0.0000      -0.220876        -6.0103
  30   0.0000      -0.185452        -5.0464
  31   0.0000      -0.185452        -5.0464
  32   0.0000      -0.157839        -4.2950

MULLIKEN ATOMIC CHARGES
-----------------------
   0 Ag:   -0.051126
   1 Ag:    0.525565
   2 Ag:    0.525562
Sum of atomic charges:    1.0000000

LOEWDIN ATOMIC CHARGES
----------------------
   0 Ag:    0.129426
   1 Ag:    0.435287
   2 Ag:    0.435287

  Mayer bond orders larger than 0.100000
B(  0-Ag,  1-Ag) :   0.5791 B(  0-Ag,  2-Ag) :   0.5791 B(  1-Ag,  2-Ag) :   0.2503

Dispersion correction           -0.000190855
FINAL SINGLE POINT ENERGY      -440.874807111506

DIPOLE MOMENT
-------------
                                X             Y             Z
Electronic contribution:      0.00000      -0.00000       0.00000
Nuclear contribution   :      0.00000       0.00000       0.00000
                        -----------------------------------------
Total Dipole Moment    :      0.00000      -0.00000       0.00000
                        -----------------------------------------
Magnitude (a.u.)       :      0.00000
Magnitude (Debye)      :      0.00000

Rotational constants in cm-1:     0.000000     0.011303     0.011303
Rotational constants in MHz :     0.000000   338.844445   338.844445

                             ****ORCA TERMINATED NORMALLY****
TOTAL RUN TIME: 0 days 0 hours 0 minutes 6 seconds 803 msec
