                         Program Version 4.2.0 -  RELEASE  -
|  1> #
|  2> # Ag03N0_LIN M06-D3BJ/Def2-TZVPPD
|  3> #
|  4> ! m06 d3zero def2-tzvppd def2/jk grid4 nofinalgrid
|  5>
|  6> *xyz 0 2
|  7> Ag       0.000000    0.000000    0.000000
|  8> Ag       0.000000    0.000000    2.592532
|  9> Ag       0.000000    0.000000   -2.592532
| 10> *
| 11>
| 12> %maxcore 5000
| 13>
| 14> %pal
| 15> nprocs = 24
| 16> end
| 17>
| 18>
| 19>                          ****END OF INPUT****

CARTESIAN COORDINATES (ANGSTROEM)
---------------------------------
  Ag     0.000000    0.000000    0.000000
  Ag     0.000000    0.000000    2.592532
  Ag     0.000000    0.000000   -2.592532

 Total Charge           Charge          ....    0
 Multiplicity           Mult            ....    2
 Number of Electrons    NEL             ....   57
 Basis Dimension        Dim             ....  168

ORBITAL ENERGIES
----------------
                 SPIN UP ORBITALS
  NO   OCC          E(Eh)            E(eV)
   0   1.0000      -3.728629      -101.4612
   1   1.0000      -3.728621      -101.4609
   2   1.0000      -3.715795      -101.1119
   3   1.0000      -2.338081       -63.6224
   4   1.0000      -2.336932       -63.5912
   5   1.0000      -2.334699       -63.5304
   6   1.0000      -2.334699       -63.5304
   7   1.0000      -2.334693       -63.5302
   8   1.0000      -2.334693       -63.5302
   9   1.0000      -2.323723       -63.2317
  10   1.0000      -2.321498       -63.1712
  11   1.0000      -2.321498       -63.1712
  12   1.0000      -0.394260       -10.7284
  13   1.0000      -0.371097       -10.0981
  14   1.0000      -0.371097       -10.0981
  15   1.0000      -0.356133        -9.6909
  16   1.0000      -0.353325        -9.6145
  17   1.0000      -0.353325        -9.6145
  18   1.0000      -0.350383        -9.5344
  19   1.0000      -0.350381        -9.5343
  20   1.0000      -0.348993        -9.4966
  21   1.0000      -0.348991        -9.4965
  22   1.0000      -0.332559        -9.0494
  23   1.0000      -0.332559        -9.0494
  24   1.0000      -0.320141        -8.7115
  25   1.0000      -0.320141        -8.7115
  26   1.0000      -0.312740        -8.5101
  27   1.0000      -0.241474        -6.5708
  28   1.0000      -0.200930        -5.4676
  29   0.0000      -0.079862        -2.1731
  30   0.0000      -0.039368        -1.0713
  31   0.0000      -0.039368        -1.0713
  32   0.0000      -0.014152        -0.3851
  33   0.0000      -0.007036        -0.1915

                 SPIN DOWN ORBITALS
  NO   OCC          E(Eh)            E(eV)
   0   1.0000      -3.726857      -101.4129
   1   1.0000      -3.726846      -101.4126
   2   1.0000      -3.716245      -101.1242
   3   1.0000      -2.337321       -63.6017
   4   1.0000      -2.335960       -63.5647
   5   1.0000      -2.333201       -63.4896
   6   1.0000      -2.333201       -63.4896
   7   1.0000      -2.333185       -63.4892
   8   1.0000      -2.333185       -63.4892
   9   1.0000      -2.324080       -63.2414
  10   1.0000      -2.321732       -63.1775
  11   1.0000      -2.321732       -63.1775
  12   1.0000      -0.394204       -10.7268
  13   1.0000      -0.370140       -10.0720
  14   1.0000      -0.370140       -10.0720
  15   1.0000      -0.354633        -9.6500
  16   1.0000      -0.351548        -9.5661
  17   1.0000      -0.351548        -9.5661
  18   1.0000      -0.348596        -9.4858
  19   1.0000      -0.348594        -9.4857
  20   1.0000      -0.347023        -9.4430
  21   1.0000      -0.347022        -9.4429
  22   1.0000      -0.332459        -9.0467
  23   1.0000      -0.332459        -9.0467
  24   1.0000      -0.318893        -8.6775
  25   1.0000      -0.318893        -8.6775
  26   1.0000      -0.310752        -8.4560
  27   1.0000      -0.228401        -6.2151
  28   0.0000      -0.144919        -3.9435
  29   0.0000      -0.065306        -1.7771
  30   0.0000      -0.034084        -0.9275
  31   0.0000      -0.034084        -0.9275
  32   0.0000      -0.002143        -0.0583

MULLIKEN ATOMIC CHARGES AND SPIN POPULATIONS
--------------------------------------------
   0 Ag:   -0.085609    0.013400
   1 Ag:    0.042799    0.493300
   2 Ag:    0.042809    0.493300
Sum of atomic charges         :   -0.0000000

LOEWDIN ATOMIC CHARGES AND SPIN POPULATIONS
-------------------------------------------
   0 Ag:   -0.177503    0.292751
   1 Ag:    0.088751    0.353625
   2 Ag:    0.088752    0.353625

  Mayer bond orders larger than 0.100000
B(  0-Ag,  1-Ag) :   0.6546 B(  0-Ag,  2-Ag) :   0.6546 B(  1-Ag,  2-Ag) :   0.1854

Dispersion correction           -0.000192554
FINAL SINGLE POINT ENERGY      -441.134353178006

DIPOLE MOMENT
-------------
                                X             Y             Z
Electronic contribution:     -0.00000       0.00000      -0.00000
Nuclear contribution   :      0.00000       0.00000       0.00000
                        -----------------------------------------
Total Dipole Moment    :     -0.00000       0.00000      -0.00000
                        -----------------------------------------
Magnitude (a.u.)       :      0.00000
Magnitude (Debye)      :      0.00001

Rotational constants in cm-1:     0.000000     0.011626     0.011626
Rotational constants in MHz :     0.000000   348.528806   348.528806

                             ****ORCA TERMINATED NORMALLY****
TOTAL RUN TIME: 0 days 0 hours 0 minutes 8 seconds 475 msec
