                         Program Version 4.2.0 -  RELEASE  -
|  1> #
|  2> # Ag03N0_D3H M06-D3BJ/Def2-TZVPPD
|  3> #
|  4> ! m06 d3zero def2-tzvppd def2/jk grid4 nofinalgrid
|  5>
|  6> *xyz 0 2
|  7> Ag       0.000000    1.533951   -0.000000
|  8> Ag       1.328441   -0.766976    0.000000
|  9> Ag      -1.328441   -0.766976   -0.000000
| 10> *
| 11>
| 12> %maxcore 5000
| 13>
| 14> %pal
| 15> nprocs = 24
| 16> end
| 17>
| 18>
| 19>                          ****END OF INPUT****

CARTESIAN COORDINATES (ANGSTROEM)
---------------------------------
  Ag     0.000000    1.533951   -0.000000
  Ag     1.328441   -0.766976    0.000000
  Ag    -1.328441   -0.766976   -0.000000

 Total Charge           Charge          ....    0
 Multiplicity           Mult            ....    2
 Number of Electrons    NEL             ....   57
 Basis Dimension        Dim             ....  168

ORBITAL ENERGIES
----------------
                 SPIN UP ORBITALS
  NO   OCC          E(Eh)            E(eV)
   0   1.0000      -3.736891      -101.6860
   1   1.0000      -3.736547      -101.6766
   2   1.0000      -3.716620      -101.1344
   3   1.0000      -2.347336       -63.8742
   4   1.0000      -2.343964       -63.7825
   5   1.0000      -2.343668       -63.7744
   6   1.0000      -2.343106       -63.7592
   7   1.0000      -2.342749       -63.7494
   8   1.0000      -2.342191       -63.7343
   9   1.0000      -2.324442       -63.2513
  10   1.0000      -2.323328       -63.2210
  11   1.0000      -2.320907       -63.1551
  12   1.0000      -0.400365       -10.8945
  13   1.0000      -0.386382       -10.5140
  14   1.0000      -0.379912       -10.3379
  15   1.0000      -0.378140       -10.2897
  16   1.0000      -0.365806        -9.9541
  17   1.0000      -0.365030        -9.9330
  18   1.0000      -0.359919        -9.7939
  19   1.0000      -0.348118        -9.4728
  20   1.0000      -0.344463        -9.3733
  21   1.0000      -0.341993        -9.3061
  22   1.0000      -0.331689        -9.0257
  23   1.0000      -0.330224        -8.9859
  24   1.0000      -0.327668        -8.9163
  25   1.0000      -0.326560        -8.8861
  26   1.0000      -0.315798        -8.5933
  27   1.0000      -0.262874        -7.1532
  28   1.0000      -0.147676        -4.0185
  29   0.0000      -0.111068        -3.0223
  30   0.0000      -0.046518        -1.2658
  31   0.0000      -0.021806        -0.5934
  32   0.0000      -0.008832        -0.2403
  33   0.0000      -0.007810        -0.2125

                 SPIN DOWN ORBITALS
  NO   OCC          E(Eh)            E(eV)
   0   1.0000      -3.736141      -101.6656
   1   1.0000      -3.735790      -101.6560
   2   1.0000      -3.714311      -101.0716
   3   1.0000      -2.346751       -63.8583
   4   1.0000      -2.342670       -63.7473
   5   1.0000      -2.342625       -63.7461
   6   1.0000      -2.342595       -63.7453
   7   1.0000      -2.342269       -63.7364
   8   1.0000      -2.341818       -63.7241
   9   1.0000      -2.321730       -63.1775
  10   1.0000      -2.321576       -63.1733
  11   1.0000      -2.319369       -63.1132
  12   1.0000      -0.398301       -10.8383
  13   1.0000      -0.385804       -10.4983
  14   1.0000      -0.379208       -10.3188
  15   1.0000      -0.376107       -10.2344
  16   1.0000      -0.364796        -9.9266
  17   1.0000      -0.364273        -9.9124
  18   1.0000      -0.358913        -9.7665
  19   1.0000      -0.347065        -9.4441
  20   1.0000      -0.344064        -9.3625
  21   1.0000      -0.341303        -9.2873
  22   1.0000      -0.330003        -8.9798
  23   1.0000      -0.328635        -8.9426
  24   1.0000      -0.325475        -8.8566
  25   1.0000      -0.324355        -8.8262
  26   1.0000      -0.313346        -8.5266
  27   1.0000      -0.254975        -6.9382
  28   0.0000      -0.106051        -2.8858
  29   0.0000      -0.093060        -2.5323
  30   0.0000      -0.043569        -1.1856
  31   0.0000      -0.015913        -0.4330
  32   0.0000       0.001659         0.0451

MULLIKEN ATOMIC CHARGES AND SPIN POPULATIONS
--------------------------------------------
   0 Ag:   -0.081669    0.554976
   1 Ag:    0.040839    0.222502
   2 Ag:    0.040830    0.222522
Sum of atomic charges         :    0.0000000

LOEWDIN ATOMIC CHARGES AND SPIN POPULATIONS
-------------------------------------------
   0 Ag:   -0.070004    0.462751
   1 Ag:    0.035005    0.268619
   2 Ag:    0.034998    0.268631

  Mayer bond orders larger than 0.100000
B(  0-Ag,  1-Ag) :   0.5052 B(  0-Ag,  2-Ag) :   0.5052 B(  1-Ag,  2-Ag) :   0.7754

Dispersion correction           -0.000006885
FINAL SINGLE POINT ENERGY      -441.131482666802

DIPOLE MOMENT
-------------
                                X             Y             Z
Electronic contribution:      0.00002      -0.41670      -0.00000
Nuclear contribution   :      0.00000       0.00000       0.00000
                        -----------------------------------------
Total Dipole Moment    :      0.00002      -0.41670      -0.00000
                        -----------------------------------------
Magnitude (a.u.)       :      0.41670
Magnitude (Debye)      :      1.05916

Rotational constants in cm-1:     0.044277     0.044277     0.022139
Rotational constants in MHz :  1327.402110  1327.401756   663.700966

                             ****ORCA TERMINATED NORMALLY****
TOTAL RUN TIME: 0 days 0 hours 0 minutes 7 seconds 588 msec
