                         Program Version 4.2.0 -  RELEASE  -
|  1> #
|  2> # Ag03C1_D3H M06-D3BJ/Def2-TZVPPD
|  3> #
|  4> ! m06 d3zero def2-tzvppd def2/jk grid4 nofinalgrid
|  5>
|  6> *xyz 1 1
|  7> Ag       0.000000    1.529877    0.000000
|  8> Ag       1.324912   -0.764938    0.000000
|  9> Ag      -1.324912   -0.764938    0.000000
| 10> *
| 11>
| 12> %maxcore 5000
| 13>
| 14> %pal
| 15> nprocs = 24
| 16> end
| 17>
| 18>
| 19>                          ****END OF INPUT****

CARTESIAN COORDINATES (ANGSTROEM)
---------------------------------
  Ag     0.000000    1.529877    0.000000
  Ag     1.324912   -0.764938    0.000000
  Ag    -1.324912   -0.764938    0.000000

 Total Charge           Charge          ....    1
 Multiplicity           Mult            ....    1
 Number of Electrons    NEL             ....   56
 Basis Dimension        Dim             ....  168

ORBITAL ENERGIES
----------------

  NO   OCC          E(Eh)            E(eV)
   0   2.0000      -3.921408      -106.7069
   1   2.0000      -3.920874      -106.6924
   2   2.0000      -3.920869      -106.6923
   3   2.0000      -2.532724       -68.9189
   4   2.0000      -2.530678       -68.8632
   5   2.0000      -2.530671       -68.8631
   6   2.0000      -2.527839       -68.7860
   7   2.0000      -2.527261       -68.7703
   8   2.0000      -2.526863       -68.7594
   9   2.0000      -2.526856       -68.7593
  10   2.0000      -2.526715       -68.7554
  11   2.0000      -2.526710       -68.7553
  12   2.0000      -0.589113       -16.0306
  13   2.0000      -0.573707       -15.6114
  14   2.0000      -0.573700       -15.6112
  15   2.0000      -0.568439       -15.4680
  16   2.0000      -0.555428       -15.1140
  17   2.0000      -0.552224       -15.0268
  18   2.0000      -0.552204       -15.0262
  19   2.0000      -0.533203       -14.5092
  20   2.0000      -0.533203       -14.5092
  21   2.0000      -0.529709       -14.4141
  22   2.0000      -0.526768       -14.3341
  23   2.0000      -0.526740       -14.3333
  24   2.0000      -0.526130       -14.3167
  25   2.0000      -0.526105       -14.3160
  26   2.0000      -0.508694       -13.8423
  27   2.0000      -0.437239       -11.8979
  28   0.0000      -0.265062        -7.2127
  29   0.0000      -0.265056        -7.2125
  30   0.0000      -0.203283        -5.5316
  31   0.0000      -0.167285        -4.5521
  32   0.0000      -0.157906        -4.2969

MULLIKEN ATOMIC CHARGES
-----------------------
   0 Ag:    0.333241
   1 Ag:    0.333381
   2 Ag:    0.333378
Sum of atomic charges:    1.0000000

LOEWDIN ATOMIC CHARGES
----------------------
   0 Ag:    0.333312
   1 Ag:    0.333344
   2 Ag:    0.333344

  Mayer bond orders larger than 0.100000
B(  0-Ag,  1-Ag) :   0.5421 B(  0-Ag,  2-Ag) :   0.5421 B(  1-Ag,  2-Ag) :   0.5420

Dispersion correction           -0.000006740
FINAL SINGLE POINT ENERGY      -440.922255442841

DIPOLE MOMENT
-------------
                                X             Y             Z
Electronic contribution:     -0.00000      -0.00008       0.00000
Nuclear contribution   :      0.00000       0.00000       0.00000
                        -----------------------------------------
Total Dipole Moment    :     -0.00000      -0.00008       0.00000
                        -----------------------------------------
Magnitude (a.u.)       :      0.00008
Magnitude (Debye)      :      0.00019

Rotational constants in cm-1:     0.044514     0.044514     0.022257
Rotational constants in MHz :  1334.482437  1334.482320   667.241189

                             ****ORCA TERMINATED NORMALLY****
TOTAL RUN TIME: 0 days 0 hours 0 minutes 7 seconds 759 msec
