                         Program Version 4.2.0 -  RELEASE  -
|  1> #
|  2> # Ag04C2_H_A M06-D3BJ/Def2-TZVPPD
|  3> #
|  4> ! m06 d3zero def2-tzvppd def2/jk grid4 nofinalgrid
|  5>
|  6> *xyz 2 2
|  7> Ag       0.000000    0.000000    1.733523
|  8> Ag       0.000000    1.616553   -0.602470
|  9> Ag      -1.399976   -0.808277   -0.602470
| 10> Ag       1.399976   -0.808277   -0.602470
| 11> H        0.000000    0.000000    3.472645
| 12> *
| 13>
| 14> %maxcore 5000
| 15>
| 16> %pal
| 17> nprocs = 24
| 18> end
| 19>
| 20>
| 21>                          ****END OF INPUT****

CARTESIAN COORDINATES (ANGSTROEM)
---------------------------------
  Ag     0.000000    0.000000    1.733523
  Ag     0.000000    1.616553   -0.602470
  Ag    -1.399976   -0.808277   -0.602470
  Ag     1.399976   -0.808277   -0.602470
  H      0.000000    0.000000    3.472645

 Total Charge           Charge          ....    2
 Multiplicity           Mult            ....    2
 Number of Electrons    NEL             ....   75
 Basis Dimension        Dim             ....  241

ORBITAL ENERGIES
----------------
                 SPIN UP ORBITALS
  NO   OCC          E(Eh)            E(eV)
   0   1.0000      -4.115670      -111.9931
   1   1.0000      -4.101202      -111.5994
   2   1.0000      -4.100956      -111.5927
   3   1.0000      -4.100951      -111.5925
   4   1.0000      -2.725369       -74.1611
   5   1.0000      -2.720583       -74.0308
   6   1.0000      -2.720578       -74.0307
   7   1.0000      -2.710420       -73.7543
   8   1.0000      -2.709352       -73.7252
   9   1.0000      -2.709349       -73.7251
  10   1.0000      -2.708765       -73.7093
  11   1.0000      -2.708566       -73.7038
  12   1.0000      -2.708559       -73.7036
  13   1.0000      -2.707766       -73.6820
  14   1.0000      -2.707211       -73.6670
  15   1.0000      -2.707203       -73.6668
  16   1.0000      -0.797056       -21.6890
  17   1.0000      -0.755840       -20.5675
  18   1.0000      -0.755363       -20.5545
  19   1.0000      -0.755344       -20.5539
  20   1.0000      -0.747115       -20.3300
  21   1.0000      -0.747106       -20.3298
  22   1.0000      -0.740956       -20.1624
  23   1.0000      -0.735362       -20.0102
  24   1.0000      -0.735355       -20.0100
  25   1.0000      -0.732735       -19.9387
  26   1.0000      -0.718642       -19.5553
  27   1.0000      -0.718639       -19.5552
  28   1.0000      -0.713350       -19.4112
  29   1.0000      -0.712354       -19.3841
  30   1.0000      -0.712348       -19.3840
  31   1.0000      -0.710366       -19.3300
  32   1.0000      -0.710343       -19.3294
  33   1.0000      -0.699471       -19.0336
  34   1.0000      -0.699463       -19.0334
  35   1.0000      -0.694008       -18.8849
  36   1.0000      -0.653903       -17.7936
  37   1.0000      -0.626076       -17.0364
  38   0.0000      -0.434319       -11.8184
  39   0.0000      -0.434313       -11.8183
  40   0.0000      -0.405252       -11.0275
  41   0.0000      -0.315800        -8.5934
  42   0.0000      -0.315799        -8.5933

                 SPIN DOWN ORBITALS
  NO   OCC          E(Eh)            E(eV)
   0   1.0000      -4.112662      -111.9112
   1   1.0000      -4.100998      -111.5938
   2   1.0000      -4.100747      -111.5870
   3   1.0000      -4.100743      -111.5869
   4   1.0000      -2.724413       -74.1350
   5   1.0000      -2.716389       -73.9167
   6   1.0000      -2.716385       -73.9166
   7   1.0000      -2.710453       -73.7552
   8   1.0000      -2.709247       -73.7224
   9   1.0000      -2.709244       -73.7223
  10   1.0000      -2.708320       -73.6971
  11   1.0000      -2.708120       -73.6917
  12   1.0000      -2.708113       -73.6915
  13   1.0000      -2.707628       -73.6783
  14   1.0000      -2.707162       -73.6656
  15   1.0000      -2.707155       -73.6654
  16   1.0000      -0.779940       -21.2233
  17   1.0000      -0.753249       -20.4969
  18   1.0000      -0.753164       -20.4946
  19   1.0000      -0.753146       -20.4941
  20   1.0000      -0.746288       -20.3075
  21   1.0000      -0.746279       -20.3073
  22   1.0000      -0.733864       -19.9694
  23   1.0000      -0.733858       -19.9693
  24   1.0000      -0.732256       -19.9257
  25   1.0000      -0.728831       -19.8325
  26   1.0000      -0.716891       -19.5076
  27   1.0000      -0.716889       -19.5076
  28   1.0000      -0.713059       -19.4033
  29   1.0000      -0.711968       -19.3736
  30   1.0000      -0.711962       -19.3735
  31   1.0000      -0.709912       -19.3177
  32   1.0000      -0.709889       -19.3171
  33   1.0000      -0.697876       -18.9902
  34   1.0000      -0.697867       -18.9899
  35   1.0000      -0.693854       -18.8807
  36   1.0000      -0.636291       -17.3144
  37   0.0000      -0.508692       -13.8422
  38   0.0000      -0.433214       -11.7884
  39   0.0000      -0.433210       -11.7883
  40   0.0000      -0.388790       -10.5795
  41   0.0000      -0.315173        -8.5763

MULLIKEN ATOMIC CHARGES AND SPIN POPULATIONS
--------------------------------------------
   0 Ag:    0.277481    0.299376
   1 Ag:    0.482502    0.033541
   2 Ag:    0.481779    0.033619
   3 Ag:    0.481779    0.033621
   4 H :    0.276459    0.599844
Sum of atomic charges         :    2.0000000

LOEWDIN ATOMIC CHARGES AND SPIN POPULATIONS
-------------------------------------------
   0 Ag:    0.404348    0.339379
   1 Ag:    0.501444    0.027969
   2 Ag:    0.501353    0.027977
   3 Ag:    0.501353    0.027977
   4 H :    0.091502    0.576699

  Mayer bond orders larger than 0.100000
B(  0-Ag,  1-Ag) :   0.3353 B(  0-Ag,  2-Ag) :   0.3356 B(  0-Ag,  3-Ag) :   0.3356
B(  0-Ag,  4-H ) :   0.5339 B(  1-Ag,  2-Ag) :   0.3722 B(  1-Ag,  3-Ag) :   0.3722
B(  2-Ag,  3-Ag) :   0.3726

Dispersion correction           -0.000195393
FINAL SINGLE POINT ENERGY      -588.103768335124

DIPOLE MOMENT
-------------
                                X             Y             Z
Electronic contribution:      0.00000       0.00011      -5.31391
Nuclear contribution   :      0.00000       0.00000       5.41329
                        -----------------------------------------
Total Dipole Moment    :      0.00000       0.00011       0.09937
                        -----------------------------------------
Magnitude (a.u.)       :      0.09937
Magnitude (Debye)      :      0.25258

Rotational constants in cm-1:     0.019934     0.019231     0.019231
Rotational constants in MHz :   597.606998   576.544336   576.544235

                             ****ORCA TERMINATED NORMALLY****
TOTAL RUN TIME: 0 days 0 hours 0 minutes 16 seconds 696 msec
