                         Program Version 4.2.0 -  RELEASE  -
|  1> #
|  2> # Ag04C2_NH3_F M06-D3BJ/Def2-TZVPPD
|  3> #
|  4> ! m06 d3zero def2-tzvppd def2/jk grid4 nofinalgrid
|  5>
|  6> *xyz 2 1
|  7> Ag       0.000000    1.593354   -0.403942
|  8> Ag       1.379885   -0.796677   -0.403942
|  9> Ag      -1.379885   -0.796677   -0.403942
| 10> Ag       0.000000    0.000000    1.894943
| 11> N        0.000000    0.000000   -3.082630
| 12> H        0.808649    0.466874   -3.509356
| 13> H       -0.000000   -0.933748   -3.509356
| 14> H       -0.808649    0.466874   -3.509356
| 15> *
| 16>
| 17> %maxcore 5000
| 18>
| 19> %pal
| 20> nprocs = 24
| 21> end
| 22>
| 23>
| 24>                          ****END OF INPUT****

CARTESIAN COORDINATES (ANGSTROEM)
---------------------------------
  Ag     0.000000    1.593354   -0.403942
  Ag     1.379885   -0.796677   -0.403942
  Ag    -1.379885   -0.796677   -0.403942
  Ag     0.000000    0.000000    1.894943
  N      0.000000    0.000000   -3.082630
  H      0.808649    0.466874   -3.509356
  H     -0.000000   -0.933748   -3.509356
  H     -0.808649    0.466874   -3.509356

 Total Charge           Charge          ....    2
 Multiplicity           Mult            ....    1
 Number of Electrons    NEL             ....   84
 Basis Dimension        Dim             ....  312

ORBITAL ENERGIES
----------------

  NO   OCC          E(Eh)            E(eV)
   0   2.0000     -14.682102      -399.5203
   1   2.0000      -4.077266      -110.9480
   2   2.0000      -4.076953      -110.9395
   3   2.0000      -4.076948      -110.9394
   4   2.0000      -4.071288      -110.7854
   5   2.0000      -2.687364       -73.1269
   6   2.0000      -2.686314       -73.0983
   7   2.0000      -2.686314       -73.0983
   8   2.0000      -2.684539       -73.0500
   9   2.0000      -2.684181       -73.0403
  10   2.0000      -2.684165       -73.0398
  11   2.0000      -2.684163       -73.0398
  12   2.0000      -2.682967       -73.0072
  13   2.0000      -2.682961       -73.0071
  14   2.0000      -2.678604       -72.8885
  15   2.0000      -2.678408       -72.8832
  16   2.0000      -2.678407       -72.8832
  17   2.0000      -1.175438       -31.9853
  18   2.0000      -0.771715       -20.9994
  19   2.0000      -0.771702       -20.9991
  20   2.0000      -0.749229       -20.3876
  21   2.0000      -0.730810       -19.8863
  22   2.0000      -0.727840       -19.8055
  23   2.0000      -0.727825       -19.8051
  24   2.0000      -0.720856       -19.6155
  25   2.0000      -0.720854       -19.6154
  26   2.0000      -0.711363       -19.3572
  27   2.0000      -0.706470       -19.2240
  28   2.0000      -0.706468       -19.2240
  29   2.0000      -0.689063       -18.7504
  30   2.0000      -0.687931       -18.7195
  31   2.0000      -0.687918       -18.7192
  32   2.0000      -0.685720       -18.6594
  33   2.0000      -0.685716       -18.6593
  34   2.0000      -0.684580       -18.6284
  35   2.0000      -0.684580       -18.6284
  36   2.0000      -0.683680       -18.6039
  37   2.0000      -0.669238       -18.2109
  38   2.0000      -0.667654       -18.1678
  39   2.0000      -0.667648       -18.1676
  40   2.0000      -0.642012       -17.4700
  41   2.0000      -0.582888       -15.8612
  42   0.0000      -0.414076       -11.2676
  43   0.0000      -0.414069       -11.2674
  44   0.0000      -0.398896       -10.8545
  45   0.0000      -0.306644        -8.3442
  46   0.0000      -0.297921        -8.1069

MULLIKEN ATOMIC CHARGES
-----------------------
   0 Ag:    0.434395
   1 Ag:    0.434131
   2 Ag:    0.434132
   3 Ag:    0.503324
   4 N :   -0.339259
   5 H :    0.178153
   6 H :    0.176973
   7 H :    0.178151
Sum of atomic charges:    2.0000000

LOEWDIN ATOMIC CHARGES
----------------------
   0 Ag:    0.479365
   1 Ag:    0.479332
   2 Ag:    0.479332
   3 Ag:    0.472264
   4 N :    0.410321
   5 H :   -0.106868
   6 H :   -0.106878
   7 H :   -0.106869

  Mayer bond orders larger than 0.100000
B(  0-Ag,  1-Ag) :   0.3706 B(  0-Ag,  2-Ag) :   0.3706 B(  0-Ag,  3-Ag) :   0.3479
B(  1-Ag,  2-Ag) :   0.3707 B(  1-Ag,  3-Ag) :   0.3483 B(  2-Ag,  3-Ag) :   0.3483
B(  4-N ,  5-H ) :   1.0320 B(  4-N ,  6-H ) :   1.0339 B(  4-N ,  7-H ) :   1.0320

Dispersion correction           -0.000474877
FINAL SINGLE POINT ENERGY      -644.172725864769

DIPOLE MOMENT
-------------
                                X             Y             Z
Electronic contribution:     -0.00000       0.00007      41.77032
Nuclear contribution   :      0.00000       0.00000     -43.35494
                        -----------------------------------------
Total Dipole Moment    :     -0.00000       0.00007      -1.58461
                        -----------------------------------------
Magnitude (a.u.)       :      1.58461
Magnitude (Debye)      :      4.02776

Rotational constants in cm-1:     0.020453     0.016499     0.016499
Rotational constants in MHz :   613.168216   494.640125   494.640113

                             ****ORCA TERMINATED NORMALLY****
TOTAL RUN TIME: 0 days 0 hours 0 minutes 17 seconds 779 msec
