                         Program Version 4.2.0 -  RELEASE  -
|  1> #
|  2> # Ag04C2_H_E M06-D3BJ/Def2-TZVPPD
|  3> #
|  4> ! m06 d3zero def2-tzvppd def2/jk grid4 nofinalgrid
|  5>
|  6> *xyz 2 2
|  7> Ag      -0.000000    1.374598    1.108828
|  8> Ag      -0.000000   -1.374598    1.108828
|  9> Ag      -1.374988    0.000000   -1.132689
| 10> Ag       1.374988   -0.000000   -1.132689
| 11> H        0.000000    0.000000    2.242952
| 12> *
| 13>
| 14> %maxcore 5000
| 15>
| 16> %pal
| 17> nprocs = 24
| 18> end
| 19>
| 20>
| 21>                          ****END OF INPUT****

CARTESIAN COORDINATES (ANGSTROEM)
---------------------------------
  Ag    -0.000000    1.374598    1.108828
  Ag    -0.000000   -1.374598    1.108828
  Ag    -1.374988    0.000000   -1.132689
  Ag     1.374988   -0.000000   -1.132689
  H      0.000000    0.000000    2.242952

 Total Charge           Charge          ....    2
 Multiplicity           Mult            ....    2
 Number of Electrons    NEL             ....   75
 Basis Dimension        Dim             ....  241

ORBITAL ENERGIES
----------------
                 SPIN UP ORBITALS
  NO   OCC          E(Eh)            E(eV)
   0   1.0000      -4.115052      -111.9763
   1   1.0000      -4.114832      -111.9703
   2   1.0000      -4.099975      -111.5660
   3   1.0000      -4.099770      -111.5604
   4   1.0000      -2.725418       -74.1624
   5   1.0000      -2.723453       -74.1089
   6   1.0000      -2.722567       -74.0848
   7   1.0000      -2.721159       -74.0465
   8   1.0000      -2.720448       -74.0272
   9   1.0000      -2.720189       -74.0201
  10   1.0000      -2.708711       -73.7078
  11   1.0000      -2.707724       -73.6809
  12   1.0000      -2.707521       -73.6754
  13   1.0000      -2.707273       -73.6687
  14   1.0000      -2.707067       -73.6630
  15   1.0000      -2.705819       -73.6291
  16   1.0000      -0.814185       -22.1551
  17   1.0000      -0.770593       -20.9689
  18   1.0000      -0.754707       -20.5366
  19   1.0000      -0.753821       -20.5125
  20   1.0000      -0.749610       -20.3979
  21   1.0000      -0.745147       -20.2765
  22   1.0000      -0.742995       -20.2179
  23   1.0000      -0.741019       -20.1642
  24   1.0000      -0.733932       -19.9713
  25   1.0000      -0.726076       -19.7575
  26   1.0000      -0.723053       -19.6753
  27   1.0000      -0.722192       -19.6518
  28   1.0000      -0.721026       -19.6201
  29   1.0000      -0.720696       -19.6111
  30   1.0000      -0.716356       -19.4930
  31   1.0000      -0.710773       -19.3411
  32   1.0000      -0.709121       -19.2962
  33   1.0000      -0.706985       -19.2380
  34   1.0000      -0.704336       -19.1660
  35   1.0000      -0.697863       -18.9898
  36   1.0000      -0.673764       -18.3340
  37   1.0000      -0.573364       -15.6020
  38   0.0000      -0.437846       -11.9144
  39   0.0000      -0.434090       -11.8122
  40   0.0000      -0.383509       -10.4358
  41   0.0000      -0.326771        -8.8919
  42   0.0000      -0.323659        -8.8072

                 SPIN DOWN ORBITALS
  NO   OCC          E(Eh)            E(eV)
   0   1.0000      -4.112125      -111.8966
   1   1.0000      -4.111914      -111.8909
   2   1.0000      -4.099123      -111.5428
   3   1.0000      -4.098895      -111.5366
   4   1.0000      -2.721471       -74.0550
   5   1.0000      -2.719738       -74.0078
   6   1.0000      -2.719136       -73.9914
   7   1.0000      -2.718113       -73.9636
   8   1.0000      -2.717864       -73.9568
   9   1.0000      -2.717633       -73.9505
  10   1.0000      -2.708964       -73.7147
  11   1.0000      -2.706653       -73.6518
  12   1.0000      -2.706467       -73.6467
  13   1.0000      -2.706214       -73.6398
  14   1.0000      -2.706113       -73.6371
  15   1.0000      -2.705839       -73.6296
  16   1.0000      -0.794431       -21.6176
  17   1.0000      -0.768133       -20.9020
  18   1.0000      -0.752669       -20.4812
  19   1.0000      -0.751685       -20.4544
  20   1.0000      -0.747718       -20.3465
  21   1.0000      -0.743084       -20.2204
  22   1.0000      -0.741372       -20.1738
  23   1.0000      -0.738235       -20.0884
  24   1.0000      -0.730325       -19.8731
  25   1.0000      -0.722825       -19.6691
  26   1.0000      -0.720726       -19.6120
  27   1.0000      -0.719879       -19.5889
  28   1.0000      -0.718808       -19.5598
  29   1.0000      -0.717145       -19.5145
  30   1.0000      -0.714934       -19.4543
  31   1.0000      -0.709821       -19.3152
  32   1.0000      -0.707531       -19.2529
  33   1.0000      -0.703047       -19.1309
  34   1.0000      -0.701720       -19.0948
  35   1.0000      -0.695842       -18.9348
  36   1.0000      -0.657648       -17.8955
  37   0.0000      -0.502514       -13.6741
  38   0.0000      -0.433271       -11.7899
  39   0.0000      -0.428912       -11.6713
  40   0.0000      -0.369066       -10.0428
  41   0.0000      -0.320720        -8.7272

MULLIKEN ATOMIC CHARGES AND SPIN POPULATIONS
--------------------------------------------
   0 Ag:    0.403489    0.143421
   1 Ag:    0.403486    0.143422
   2 Ag:    0.513534    0.212579
   3 Ag:    0.513535    0.212579
   4 H :    0.165956    0.287999
Sum of atomic charges         :    2.0000000

LOEWDIN ATOMIC CHARGES AND SPIN POPULATIONS
-------------------------------------------
   0 Ag:    0.539511    0.213333
   1 Ag:    0.539511    0.213333
   2 Ag:    0.516779    0.180723
   3 Ag:    0.516779    0.180723
   4 H :   -0.112579    0.211888

  Mayer bond orders larger than 0.100000
B(  0-Ag,  1-Ag) :   0.4601 B(  0-Ag,  2-Ag) :   0.2782 B(  0-Ag,  3-Ag) :   0.2782
B(  0-Ag,  4-H ) :   0.3947 B(  1-Ag,  2-Ag) :   0.2782 B(  1-Ag,  3-Ag) :   0.2782
B(  1-Ag,  4-H ) :   0.3947 B(  2-Ag,  3-Ag) :   0.3856

Dispersion correction           -0.000092998
FINAL SINGLE POINT ENERGY      -588.120642201518

DIPOLE MOMENT
-------------
                                X             Y             Z
Electronic contribution:     -0.00000       0.00000      -3.69847
Nuclear contribution   :      0.00000       0.00000       3.49639
                        -----------------------------------------
Total Dipole Moment    :     -0.00000       0.00000      -0.20208
                        -----------------------------------------
Magnitude (a.u.)       :      0.20208
Magnitude (Debye)      :      0.51363

Rotational constants in cm-1:     0.020671     0.017657     0.017653
Rotational constants in MHz :   619.701148   529.337252   529.209018

                             ****ORCA TERMINATED NORMALLY****
TOTAL RUN TIME: 0 days 0 hours 0 minutes 13 seconds 228 msec
