                         Program Version 4.2.0 -  RELEASE  -
|  1> #
|  2> # Ag04C2 M06-D3BJ/Def2-TZVPPD
|  3> #
|  4> ! m06 d3zero def2-tzvppd def2/jk grid4 nofinalgrid
|  5>
|  6> *xyz 2 1
|  7> Ag      -0.000000   -0.000016    1.715553
|  8> Ag       0.000000   -1.617524   -0.571836
|  9> Ag       1.400774    0.808769   -0.571859
| 10> Ag      -1.400774    0.808770   -0.571858
| 11> *
| 12>
| 13> %maxcore 5000
| 14>
| 15> %pal
| 16> nprocs = 24
| 17> end
| 18>
| 19>
| 20>                          ****END OF INPUT****

CARTESIAN COORDINATES (ANGSTROEM)
---------------------------------
  Ag    -0.000000   -0.000016    1.715553
  Ag     0.000000   -1.617524   -0.571836
  Ag     1.400774    0.808769   -0.571859
  Ag    -1.400774    0.808770   -0.571858

 Total Charge           Charge          ....    2
 Multiplicity           Mult            ....    1
 Number of Electrons    NEL             ....   74
 Basis Dimension        Dim             ....  224

ORBITAL ENERGIES
----------------

  NO   OCC          E(Eh)            E(eV)
   0   2.0000      -4.101555      -111.6090
   1   2.0000      -4.101225      -111.6000
   2   2.0000      -4.101221      -111.5999
   3   2.0000      -4.101219      -111.5998
   4   2.0000      -2.711471       -73.7829
   5   2.0000      -2.709902       -73.7402
   6   2.0000      -2.709900       -73.7401
   7   2.0000      -2.709900       -73.7401
   8   2.0000      -2.709451       -73.7279
   9   2.0000      -2.709448       -73.7278
  10   2.0000      -2.708113       -73.6915
  11   2.0000      -2.708112       -73.6915
  12   2.0000      -2.708108       -73.6914
  13   2.0000      -2.707458       -73.6737
  14   2.0000      -2.707451       -73.6735
  15   2.0000      -2.707451       -73.6735
  16   2.0000      -0.771977       -21.0066
  17   2.0000      -0.751886       -20.4599
  18   2.0000      -0.751884       -20.4598
  19   2.0000      -0.751871       -20.4595
  20   2.0000      -0.745885       -20.2966
  21   2.0000      -0.745874       -20.2963
  22   2.0000      -0.732995       -19.9458
  23   2.0000      -0.732991       -19.9457
  24   2.0000      -0.732977       -19.9453
  25   2.0000      -0.713732       -19.4216
  26   2.0000      -0.713720       -19.4213
  27   2.0000      -0.713716       -19.4212
  28   2.0000      -0.711887       -19.3714
  29   2.0000      -0.711880       -19.3712
  30   2.0000      -0.710567       -19.3355
  31   2.0000      -0.710552       -19.3351
  32   2.0000      -0.710536       -19.3347
  33   2.0000      -0.694435       -18.8965
  34   2.0000      -0.694432       -18.8965
  35   2.0000      -0.694421       -18.8961
  36   2.0000      -0.637327       -17.3425
  37   0.0000      -0.433757       -11.8031
  38   0.0000      -0.433756       -11.8031
  39   0.0000      -0.433750       -11.8029
  40   0.0000      -0.318488        -8.6665
  41   0.0000      -0.311849        -8.4858

MULLIKEN ATOMIC CHARGES
-----------------------
   0 Ag:    0.499875
   1 Ag:    0.500636
   2 Ag:    0.499745
   3 Ag:    0.499744
Sum of atomic charges:    2.0000000

LOEWDIN ATOMIC CHARGES
----------------------
   0 Ag:    0.499980
   1 Ag:    0.500087
   2 Ag:    0.499966
   3 Ag:    0.499966

  Mayer bond orders larger than 0.100000
B(  0-Ag,  1-Ag) :   0.3554 B(  0-Ag,  2-Ag) :   0.3559 B(  0-Ag,  3-Ag) :   0.3559
B(  1-Ag,  2-Ag) :   0.3555 B(  1-Ag,  3-Ag) :   0.3555 B(  2-Ag,  3-Ag) :   0.3559

Dispersion correction           -0.000021043
FINAL SINGLE POINT ENERGY      -587.587672863693

DIPOLE MOMENT
-------------
                                X             Y             Z
Electronic contribution:     -0.00000      -0.00017      -0.00006
Nuclear contribution   :      0.00000      -0.00000       0.00000
                        -----------------------------------------
Total Dipole Moment    :     -0.00000      -0.00017      -0.00006
                        -----------------------------------------
Magnitude (a.u.)       :      0.00018
Magnitude (Debye)      :      0.00046

Rotational constants in cm-1:     0.019912     0.019911     0.019911
Rotational constants in MHz :   596.940436   596.919431   596.905399

                             ****ORCA TERMINATED NORMALLY****
TOTAL RUN TIME: 0 days 0 hours 0 minutes 10 seconds 383 msec
