                         Program Version 4.2.0 -  RELEASE  -
|  1> #
|  2> # Ag04C2_H_F M06-D3BJ/Def2-TZVPPD
|  3> #
|  4> ! m06 d3zero def2-tzvppd def2/jk grid4 nofinalgrid
|  5>
|  6> *xyz 2 2
|  7> Ag       0.000000    1.604405   -0.611776
|  8> Ag       1.389456   -0.802203   -0.611776
|  9> Ag      -1.389456   -0.802203   -0.611776
| 10> Ag       0.000000    0.000000    1.871824
| 11> H        0.000000    0.000000   -1.715373
| 12> *
| 13>
| 14> %maxcore 5000
| 15>
| 16> %pal
| 17> nprocs = 24
| 18> end
| 19>
| 20>
| 21>                          ****END OF INPUT****

CARTESIAN COORDINATES (ANGSTROEM)
---------------------------------
  Ag     0.000000    1.604405   -0.611776
  Ag     1.389456   -0.802203   -0.611776
  Ag    -1.389456   -0.802203   -0.611776
  Ag     0.000000    0.000000    1.871824
  H      0.000000    0.000000   -1.715373

 Total Charge           Charge          ....    2
 Multiplicity           Mult            ....    2
 Number of Electrons    NEL             ....   75
 Basis Dimension        Dim             ....  241

ORBITAL ENERGIES
----------------
                 SPIN UP ORBITALS
  NO   OCC          E(Eh)            E(eV)
   0   1.0000      -4.115839      -111.9977
   1   1.0000      -4.115552      -111.9899
   2   1.0000      -4.115551      -111.9898
   3   1.0000      -4.085292      -111.1665
   4   1.0000      -2.726297       -74.1863
   5   1.0000      -2.724572       -74.1394
   6   1.0000      -2.724571       -74.1394
   7   1.0000      -2.722755       -74.0899
   8   1.0000      -2.722754       -74.0899
   9   1.0000      -2.722650       -74.0871
  10   1.0000      -2.722450       -74.0816
  11   1.0000      -2.721842       -74.0651
  12   1.0000      -2.721840       -74.0650
  13   1.0000      -2.692990       -73.2800
  14   1.0000      -2.692146       -73.2570
  15   1.0000      -2.692146       -73.2570
  16   1.0000      -0.830435       -22.5973
  17   1.0000      -0.775802       -21.1107
  18   1.0000      -0.762622       -20.7520
  19   1.0000      -0.762614       -20.7518
  20   1.0000      -0.748410       -20.3653
  21   1.0000      -0.748405       -20.3651
  22   1.0000      -0.748316       -20.3627
  23   1.0000      -0.735386       -20.0109
  24   1.0000      -0.735382       -20.0108
  25   1.0000      -0.727420       -19.7941
  26   1.0000      -0.727411       -19.7939
  27   1.0000      -0.725788       -19.7497
  28   1.0000      -0.723862       -19.6973
  29   1.0000      -0.723859       -19.6972
  30   1.0000      -0.711333       -19.3564
  31   1.0000      -0.707176       -19.2432
  32   1.0000      -0.704502       -19.1705
  33   1.0000      -0.704490       -19.1701
  34   1.0000      -0.697703       -18.9855
  35   1.0000      -0.697700       -18.9854
  36   1.0000      -0.684276       -18.6201
  37   1.0000      -0.551404       -15.0045
  38   0.0000      -0.441621       -12.0171
  39   0.0000      -0.441619       -12.0171
  40   0.0000      -0.376552       -10.2465
  41   0.0000      -0.326384        -8.8814
  42   0.0000      -0.317283        -8.6337

                 SPIN DOWN ORBITALS
  NO   OCC          E(Eh)            E(eV)
   0   1.0000      -4.114152      -111.9518
   1   1.0000      -4.113869      -111.9441
   2   1.0000      -4.113867      -111.9440
   3   1.0000      -4.084065      -111.1331
   4   1.0000      -2.723881       -74.1206
   5   1.0000      -2.723159       -74.1009
   6   1.0000      -2.723157       -74.1009
   7   1.0000      -2.721518       -74.0563
   8   1.0000      -2.720495       -74.0284
   9   1.0000      -2.720404       -74.0260
  10   1.0000      -2.720403       -74.0259
  11   1.0000      -2.720202       -74.0205
  12   1.0000      -2.720202       -74.0205
  13   1.0000      -2.692210       -73.2588
  14   1.0000      -2.691374       -73.2360
  15   1.0000      -2.691374       -73.2360
  16   1.0000      -0.813836       -22.1456
  17   1.0000      -0.774008       -21.0618
  18   1.0000      -0.761340       -20.7171
  19   1.0000      -0.761326       -20.7167
  20   1.0000      -0.746607       -20.3162
  21   1.0000      -0.746607       -20.3162
  22   1.0000      -0.746522       -20.3139
  23   1.0000      -0.733876       -19.9698
  24   1.0000      -0.733870       -19.9696
  25   1.0000      -0.724757       -19.7216
  26   1.0000      -0.724388       -19.7116
  27   1.0000      -0.724386       -19.7115
  28   1.0000      -0.721036       -19.6204
  29   1.0000      -0.721029       -19.6202
  30   1.0000      -0.707941       -19.2641
  31   1.0000      -0.706208       -19.2169
  32   1.0000      -0.702704       -19.1216
  33   1.0000      -0.702691       -19.1212
  34   1.0000      -0.695178       -18.9167
  35   1.0000      -0.695171       -18.9166
  36   1.0000      -0.672136       -18.2897
  37   0.0000      -0.481605       -13.1051
  38   0.0000      -0.437012       -11.8917
  39   0.0000      -0.437008       -11.8916
  40   0.0000      -0.364715        -9.9244
  41   0.0000      -0.321716        -8.7543

MULLIKEN ATOMIC CHARGES AND SPIN POPULATIONS
--------------------------------------------
   0 Ag:    0.480995    0.119124
   1 Ag:    0.480906    0.119303
   2 Ag:    0.480908    0.119304
   3 Ag:    0.438121    0.378107
   4 H :    0.119070    0.264161
Sum of atomic charges         :    2.0000000

LOEWDIN ATOMIC CHARGES AND SPIN POPULATIONS
-------------------------------------------
   0 Ag:    0.544728    0.177195
   1 Ag:    0.544705    0.177203
   2 Ag:    0.544705    0.177203
   3 Ag:    0.498942    0.290540
   4 H :   -0.133080    0.177860

  Mayer bond orders larger than 0.100000
B(  0-Ag,  1-Ag) :   0.3513 B(  0-Ag,  2-Ag) :   0.3513 B(  0-Ag,  3-Ag) :   0.2995
B(  0-Ag,  4-H ) :   0.2373 B(  1-Ag,  2-Ag) :   0.3514 B(  1-Ag,  3-Ag) :   0.2997
B(  1-Ag,  4-H ) :   0.2369 B(  2-Ag,  3-Ag) :   0.2997 B(  2-Ag,  4-H ) :   0.2369

Dispersion correction           -0.000055892
FINAL SINGLE POINT ENERGY      -588.119412061556

DIPOLE MOMENT
-------------
                                X             Y             Z
Electronic contribution:     -0.00000       0.00001       2.53426
Nuclear contribution   :      0.00000       0.00000      -2.67399
                        -----------------------------------------
Total Dipole Moment    :     -0.00000       0.00001      -0.13973
                        -----------------------------------------
Magnitude (a.u.)       :      0.13973
Magnitude (Debye)      :      0.35516

Rotational constants in cm-1:     0.020237     0.018353     0.018353
Rotational constants in MHz :   606.690796   550.208253   550.208173

                             ****ORCA TERMINATED NORMALLY****
TOTAL RUN TIME: 0 days 0 hours 0 minutes 14 seconds 589 msec
