                         Program Version 4.2.0 -  RELEASE  -
|  1> #
|  2> # Ag04C2_NH3_A M06-D3BJ/Def2-TZVPPD
|  3> #
|  4> ! m06 d3zero def2-tzvppd def2/jk grid4 nofinalgrid
|  5>
|  6> *xyz 2 1
|  7> Ag      -0.268639    1.507918    0.000000
|  8> Ag       1.705052   -0.492854   -0.000000
|  9> Ag      -0.647170   -0.911099    1.379441
| 10> Ag      -0.647170   -0.911099   -1.379441
| 11> N       -0.647170    3.675657    0.000000
| 12> H       -0.250844    4.149729    0.817426
| 13> H       -0.250844    4.149729   -0.817426
| 14> H       -1.645581    3.906275    0.000000
| 15> *
| 16>
| 17> %maxcore 5000
| 18>
| 19> %pal
| 20> nprocs = 24
| 21> end
| 22>
| 23>
| 24>                          ****END OF INPUT****

CARTESIAN COORDINATES (ANGSTROEM)
---------------------------------
  Ag    -0.268639    1.507918    0.000000
  Ag     1.705052   -0.492854   -0.000000
  Ag    -0.647170   -0.911099    1.379441
  Ag    -0.647170   -0.911099   -1.379441
  N     -0.647170    3.675657    0.000000
  H     -0.250844    4.149729    0.817426
  H     -0.250844    4.149729   -0.817426
  H     -1.645581    3.906275    0.000000

 Total Charge           Charge          ....    2
 Multiplicity           Mult            ....    1
 Number of Electrons    NEL             ....   84
 Basis Dimension        Dim             ....  312

ORBITAL ENERGIES
----------------

  NO   OCC          E(Eh)            E(eV)
   0   2.0000     -14.706343      -400.1799
   1   2.0000      -4.073098      -110.8346
   2   2.0000      -4.072788      -110.8262
   3   2.0000      -4.072786      -110.8261
   4   2.0000      -4.059282      -110.4587
   5   2.0000      -2.682804       -73.0028
   6   2.0000      -2.681510       -72.9676
   7   2.0000      -2.681504       -72.9674
   8   2.0000      -2.680495       -72.9400
   9   2.0000      -2.680114       -72.9296
  10   2.0000      -2.680113       -72.9296
  11   2.0000      -2.679665       -72.9174
  12   2.0000      -2.678939       -72.8976
  13   2.0000      -2.678938       -72.8976
  14   2.0000      -2.666826       -72.5680
  15   2.0000      -2.666822       -72.5679
  16   2.0000      -2.663894       -72.4882
  17   2.0000      -1.194298       -32.4985
  18   2.0000      -0.792682       -21.5700
  19   2.0000      -0.792656       -21.5693
  20   2.0000      -0.749060       -20.3830
  21   2.0000      -0.727515       -19.7967
  22   2.0000      -0.721366       -19.6294
  23   2.0000      -0.721354       -19.6290
  24   2.0000      -0.712449       -19.3867
  25   2.0000      -0.712448       -19.3867
  26   2.0000      -0.705885       -19.2081
  27   2.0000      -0.704056       -19.1583
  28   2.0000      -0.699592       -19.0369
  29   2.0000      -0.699591       -19.0369
  30   2.0000      -0.684449       -18.6248
  31   2.0000      -0.683329       -18.5943
  32   2.0000      -0.683311       -18.5938
  33   2.0000      -0.681417       -18.5423
  34   2.0000      -0.681408       -18.5420
  35   2.0000      -0.673188       -18.3184
  36   2.0000      -0.673186       -18.3183
  37   2.0000      -0.664442       -18.0804
  38   2.0000      -0.657102       -17.8806
  39   2.0000      -0.657101       -17.8806
  40   2.0000      -0.620045       -16.8723
  41   2.0000      -0.604047       -16.4370
  42   0.0000      -0.408716       -11.1217
  43   0.0000      -0.408711       -11.1216
  44   0.0000      -0.384550       -10.4641
  45   0.0000      -0.296947        -8.0803
  46   0.0000      -0.290756        -7.9119

MULLIKEN ATOMIC CHARGES
-----------------------
   0 Ag:    0.411106
   1 Ag:    0.362830
   2 Ag:    0.361737
   3 Ag:    0.361738
   4 N :   -0.016657
   5 H :    0.173303
   6 H :    0.173305
   7 H :    0.172637
Sum of atomic charges:    2.0000000

LOEWDIN ATOMIC CHARGES
----------------------
   0 Ag:    0.415987
   1 Ag:    0.472867
   2 Ag:    0.472890
   3 Ag:    0.472890
   4 N :    0.406939
   5 H :   -0.080545
   6 H :   -0.080545
   7 H :   -0.080483

  Mayer bond orders larger than 0.100000
B(  0-Ag,  1-Ag) :   0.2449 B(  0-Ag,  2-Ag) :   0.2452 B(  0-Ag,  3-Ag) :   0.2452
B(  0-Ag,  4-N ) :   0.4892 B(  1-Ag,  2-Ag) :   0.4890 B(  1-Ag,  3-Ag) :   0.4890
B(  2-Ag,  3-Ag) :   0.4896 B(  4-N ,  5-H ) :   1.0331 B(  4-N ,  6-H ) :   1.0331
B(  4-N ,  7-H ) :   1.0332

Dispersion correction           -0.000553401
FINAL SINGLE POINT ENERGY      -644.211715691894

DIPOLE MOMENT
-------------
                                X             Y             Z
Electronic contribution:      8.68461     -49.33308       0.00000
Nuclear contribution   :     -9.00166      51.14183       0.00000
                        -----------------------------------------
Total Dipole Moment    :     -0.31705       1.80875       0.00000
                        -----------------------------------------
Magnitude (a.u.)       :      1.83633
Magnitude (Debye)      :      4.66758

Rotational constants in cm-1:     0.020466     0.015199     0.015198
Rotational constants in MHz :   613.555994   455.656791   455.636329

                             ****ORCA TERMINATED NORMALLY****
TOTAL RUN TIME: 0 days 0 hours 0 minutes 16 seconds 681 msec
