                         Program Version 4.2.0 -  RELEASE  -
|  1> #
|  2> # Ag04N0 M06-D3BJ/Def2-TZVPPD
|  3> #
|  4> ! m06 d3zero def2-tzvppd def2/jk grid4 nofinalgrid
|  5>
|  6> *xyz 0 1
|  7> Ag      -1.015022   -0.433109    0.700282
|  8> Ag       0.974659   -2.209777    0.043294
|  9> Ag       1.013798    0.433158   -0.699441
| 10> Ag      -0.973435    2.209727   -0.044135
| 11> *
| 12>
| 13> %maxcore 5000
| 14>
| 15> %pal
| 16> nprocs = 24
| 17> end
| 18>
| 19>
| 20>                          ****END OF INPUT****

CARTESIAN COORDINATES (ANGSTROEM)
---------------------------------
  Ag    -1.015022   -0.433109    0.700282
  Ag     0.974659   -2.209777    0.043294
  Ag     1.013798    0.433158   -0.699441
  Ag    -0.973435    2.209727   -0.044135

 Total Charge           Charge          ....    0
 Multiplicity           Mult            ....    1
 Number of Electrons    NEL             ....   76
 Basis Dimension        Dim             ....  224

ORBITAL ENERGIES
----------------

  NO   OCC          E(Eh)            E(eV)
   0   2.0000      -3.742515      -101.8390
   1   2.0000      -3.742077      -101.8271
   2   2.0000      -3.712034      -101.0096
   3   2.0000      -3.711985      -101.0083
   4   2.0000      -2.354052       -64.0570
   5   2.0000      -2.349222       -63.9256
   6   2.0000      -2.348858       -63.9157
   7   2.0000      -2.348790       -63.9138
   8   2.0000      -2.348337       -63.9015
   9   2.0000      -2.347801       -63.8869
  10   2.0000      -2.320046       -63.1317
  11   2.0000      -2.319919       -63.1282
  12   2.0000      -2.318403       -63.0870
  13   2.0000      -2.318332       -63.0850
  14   2.0000      -2.316911       -63.0464
  15   2.0000      -2.316865       -63.0451
  16   2.0000      -0.402452       -10.9513
  17   2.0000      -0.401633       -10.9290
  18   2.0000      -0.385811       -10.4985
  19   2.0000      -0.380159       -10.3446
  20   2.0000      -0.377675       -10.2771
  21   2.0000      -0.374161       -10.1814
  22   2.0000      -0.363824        -9.9002
  23   2.0000      -0.360235        -9.8025
  24   2.0000      -0.349270        -9.5041
  25   2.0000      -0.348085        -9.4719
  26   2.0000      -0.336743        -9.1632
  27   2.0000      -0.331553        -9.0220
  28   2.0000      -0.331295        -9.0150
  29   2.0000      -0.331020        -9.0075
  30   2.0000      -0.327743        -8.9183
  31   2.0000      -0.326475        -8.8838
  32   2.0000      -0.325751        -8.8641
  33   2.0000      -0.324016        -8.8169
  34   2.0000      -0.320640        -8.7251
  35   2.0000      -0.312490        -8.5033
  36   2.0000      -0.271697        -7.3933
  37   2.0000      -0.187202        -5.0940
  38   0.0000      -0.110379        -3.0036
  39   0.0000      -0.072741        -1.9794
  40   0.0000      -0.053015        -1.4426
  41   0.0000      -0.023761        -0.6466
  42   0.0000      -0.021009        -0.5717

MULLIKEN ATOMIC CHARGES
-----------------------
   0 Ag:    0.070046
   1 Ag:   -0.069896
   2 Ag:    0.069534
   3 Ag:   -0.069685
Sum of atomic charges:   -0.0000000

LOEWDIN ATOMIC CHARGES
----------------------
   0 Ag:   -0.069582
   1 Ag:    0.069923
   2 Ag:   -0.070376
   3 Ag:    0.070035

  Mayer bond orders larger than 0.100000
B(  0-Ag,  1-Ag) :   0.5035 B(  0-Ag,  2-Ag) :   0.5121 B(  0-Ag,  3-Ag) :   0.5038
B(  1-Ag,  2-Ag) :   0.5042 B(  1-Ag,  3-Ag) :   0.1883 B(  2-Ag,  3-Ag) :   0.5042

Dispersion correction           -0.000186298
FINAL SINGLE POINT ENERGY      -588.225728371812

DIPOLE MOMENT
-------------
                                X             Y             Z
Electronic contribution:     -0.00140       0.00020       0.00078
Nuclear contribution   :      0.00000       0.00000       0.00000
                        -----------------------------------------
Total Dipole Moment    :     -0.00140       0.00020       0.00078
                        -----------------------------------------
Magnitude (a.u.)       :      0.00161
Magnitude (Debye)      :      0.00410

Rotational constants in cm-1:     0.045790     0.013394     0.010363
Rotational constants in MHz :  1372.764620   401.554164   310.676613

                             ****ORCA TERMINATED NORMALLY****
TOTAL RUN TIME: 0 days 0 hours 0 minutes 10 seconds 792 msec
