                         Program Version 4.2.0 -  RELEASE  -
|  1> #
|  2> # Au01N0 M06-D3BJ/Def2-TZVPPD
|  3> #
|  4> ! m06 d3zero def2-tzvppd def2/jk grid4 nofinalgrid
|  5>
|  6> *xyz 0 2
|  7> Au       0.000000    0.000000    0.000000
|  8> *
|  9>
| 10> %maxcore 5000
| 11>
| 12> %pal
| 13> nprocs = 24
| 14> end
| 15>
| 16>
| 17>                          ****END OF INPUT****

CARTESIAN COORDINATES (ANGSTROEM)
---------------------------------
  Au     0.000000    0.000000    0.000000

 Total Charge           Charge          ....    0
 Multiplicity           Mult            ....    2
 Number of Electrons    NEL             ....   19
 Basis Dimension        Dim             ....   59

ORBITAL ENERGIES
----------------
                 SPIN UP ORBITALS
  NO   OCC          E(Eh)            E(eV)
   0   1.0000      -4.132613      -112.4541
   1   1.0000      -2.319012       -63.1035
   2   1.0000      -2.319012       -63.1035
   3   1.0000      -2.319012       -63.1035
   4   1.0000      -0.316596        -8.6150
   5   1.0000      -0.316596        -8.6150
   6   1.0000      -0.316596        -8.6150
   7   1.0000      -0.316596        -8.6150
   8   1.0000      -0.316596        -8.6150
   9   1.0000      -0.237131        -6.4527
  10   0.0000      -0.014934        -0.4064
  11   0.0000      -0.014934        -0.4064
  12   0.0000      -0.014934        -0.4064
  13   0.0000       0.142723         3.8837
  14   0.0000       0.144434         3.9303

                 SPIN DOWN ORBITALS
  NO   OCC          E(Eh)            E(eV)
   0   1.0000      -4.128025      -112.3293
   1   1.0000      -2.313249       -62.9467
   2   1.0000      -2.313249       -62.9467
   3   1.0000      -2.313249       -62.9467
   4   1.0000      -0.309912        -8.4331
   5   1.0000      -0.309912        -8.4331
   6   1.0000      -0.309912        -8.4331
   7   1.0000      -0.309912        -8.4331
   8   1.0000      -0.309912        -8.4331
   9   0.0000      -0.157457        -4.2846
  10   0.0000       0.007407         0.2015
  11   0.0000       0.007407         0.2015
  12   0.0000       0.007407         0.2015
  13   0.0000       0.158718         4.3189

MULLIKEN ATOMIC CHARGES AND SPIN POPULATIONS
--------------------------------------------
   0 Au:    0.000000    1.000000
Sum of atomic charges         :    0.0000000

LOEWDIN ATOMIC CHARGES AND SPIN POPULATIONS
-------------------------------------------
   0 Au:    0.000000    1.000000

Dispersion correction            0.000000000
FINAL SINGLE POINT ENERGY      -135.741006339550

DIPOLE MOMENT
-------------
                                X             Y             Z
Electronic contribution:      0.00000      -0.00000      -0.00000
Nuclear contribution   :      0.00000       0.00000       0.00000
                        -----------------------------------------
Total Dipole Moment    :      0.00000      -0.00000      -0.00000
                        -----------------------------------------
Magnitude (a.u.)       :      0.00000
Magnitude (Debye)      :      0.00000

Rotational constants in cm-1:     0.000000     0.000000     0.000000
Rotational constants in MHz :     0.000000     0.000000     0.000000

                             ****ORCA TERMINATED NORMALLY****
TOTAL RUN TIME: 0 days 0 hours 0 minutes 4 seconds 628 msec
