                         Program Version 4.2.0 -  RELEASE  -
|  1> #
|  2> # Au01N0_F M06-D3BJ/Def2-TZVPPD
|  3> #
|  4> ! m06 d3zero def2-tzvppd def2/jk grid4 nofinalgrid
|  5>
|  6> *xyz 0 1
|  7> Au       0.000000    0.000000    0.196853
|  8> F        0.000000    0.000000   -1.727931
|  9> *
| 10>
| 11> %maxcore 5000
| 12>
| 13> %pal
| 14> nprocs = 24
| 15> end
| 16>
| 17>
| 18>                          ****END OF INPUT****

CARTESIAN COORDINATES (ANGSTROEM)
---------------------------------
  Au     0.000000    0.000000    0.196853
  F      0.000000    0.000000   -1.727931

 Total Charge           Charge          ....    0
 Multiplicity           Mult            ....    1
 Number of Electrons    NEL             ....   28
 Basis Dimension        Dim             ....   99

ORBITAL ENERGIES
----------------

  NO   OCC          E(Eh)            E(eV)
   0   2.0000     -24.710202      -672.3988
   1   2.0000      -4.180509      -113.7574
   2   2.0000      -2.371500       -64.5318
   3   2.0000      -2.362910       -64.2980
   4   2.0000      -2.362910       -64.2980
   5   2.0000      -1.128693       -30.7133
   6   2.0000      -0.457275       -12.4431
   7   2.0000      -0.411566       -11.1993
   8   2.0000      -0.411566       -11.1993
   9   2.0000      -0.350104        -9.5268
  10   2.0000      -0.350099        -9.5267
  11   2.0000      -0.318880        -8.6772
  12   2.0000      -0.318880        -8.6772
  13   2.0000      -0.308195        -8.3864
  14   0.0000      -0.144100        -3.9211
  15   0.0000      -0.015004        -0.4083
  16   0.0000      -0.015004        -0.4083
  17   0.0000       0.003071         0.0836
  18   0.0000       0.046217         1.2576

MULLIKEN ATOMIC CHARGES
-----------------------
   0 Au:    0.489531
   1 F :   -0.489531
Sum of atomic charges:   -0.0000000

LOEWDIN ATOMIC CHARGES
----------------------
   0 Au:    0.623172
   1 F :   -0.623172

  Mayer bond orders larger than 0.100000
B(  0-Au,  1-F ) :   0.8379

Dispersion correction           -0.000000394
FINAL SINGLE POINT ENERGY      -235.582634680949

DIPOLE MOMENT
-------------
                                X             Y             Z
Electronic contribution:     -0.00000      -0.00000      25.46850
Nuclear contribution   :      0.00000       0.00000     -23.77673
                        -----------------------------------------
Total Dipole Moment    :     -0.00000      -0.00000       1.69176
                        -----------------------------------------
Magnitude (a.u.)       :      1.69176
Magnitude (Debye)      :      4.30012

Rotational constants in cm-1:     0.000000     0.262612     0.262612
Rotational constants in MHz :     0.000000  7872.917876  7872.917876

                             ****ORCA TERMINATED NORMALLY****
TOTAL RUN TIME: 0 days 0 hours 0 minutes 5 seconds 881 msec
