                         Program Version 4.2.0 -  RELEASE  -
|  1> #
|  2> # Au02N0 M06-D3BJ/Def2-TZVPPD
|  3> #
|  4> ! m06 d3zero def2-tzvppd def2/jk grid4 nofinalgrid
|  5>
|  6> *xyz 0 1
|  7> Au       0.000000    0.000000    1.239541
|  8> Au       0.000000    0.000000   -1.239541
|  9> *
| 10>
| 11> %maxcore 5000
| 12>
| 13> %pal
| 14> nprocs = 24
| 15> end
| 16>
| 17>
| 18>                          ****END OF INPUT****

CARTESIAN COORDINATES (ANGSTROEM)
---------------------------------
  Au     0.000000    0.000000    1.239541
  Au     0.000000    0.000000   -1.239541

 Total Charge           Charge          ....    0
 Multiplicity           Mult            ....    1
 Number of Electrons    NEL             ....   38
 Basis Dimension        Dim             ....  118

ORBITAL ENERGIES
----------------

  NO   OCC          E(Eh)            E(eV)
   0   2.0000      -4.136092      -112.5488
   1   2.0000      -4.135368      -112.5291
   2   2.0000      -2.332210       -63.4627
   3   2.0000      -2.319699       -63.1222
   4   2.0000      -2.319699       -63.1222
   5   2.0000      -2.319632       -63.1204
   6   2.0000      -2.318580       -63.0918
   7   2.0000      -2.318580       -63.0918
   8   2.0000      -0.382795       -10.4164
   9   2.0000      -0.352045        -9.5796
  10   2.0000      -0.352045        -9.5796
  11   2.0000      -0.317642        -8.6435
  12   2.0000      -0.317610        -8.6426
  13   2.0000      -0.304332        -8.2813
  14   2.0000      -0.304298        -8.2804
  15   2.0000      -0.289384        -7.8745
  16   2.0000      -0.289384        -7.8745
  17   2.0000      -0.284142        -7.7319
  18   2.0000      -0.263384        -7.1670
  19   0.0000      -0.122016        -3.3202
  20   0.0000      -0.024975        -0.6796
  21   0.0000      -0.024975        -0.6796
  22   0.0000      -0.007162        -0.1949
  23   0.0000       0.032632         0.8880

MULLIKEN ATOMIC CHARGES
-----------------------
   0 Au:    0.000006
   1 Au:   -0.000006
Sum of atomic charges:   -0.0000000

LOEWDIN ATOMIC CHARGES
----------------------
   0 Au:    0.000000
   1 Au:   -0.000000

  Mayer bond orders larger than 0.100000
B(  0-Au,  1-Au) :   1.1532

Dispersion correction           -0.000002140
FINAL SINGLE POINT ENERGY      -271.560041211344

DIPOLE MOMENT
-------------
                                X             Y             Z
Electronic contribution:     -0.00000      -0.00000      -0.00000
Nuclear contribution   :      0.00000       0.00000       0.00000
                        -----------------------------------------
Total Dipole Moment    :     -0.00000      -0.00000      -0.00000
                        -----------------------------------------
Magnitude (a.u.)       :      0.00000
Magnitude (Debye)      :      0.00000

Rotational constants in cm-1:     0.000000     0.027852     0.027852
Rotational constants in MHz :     0.000000   834.974952   834.974952

                             ****ORCA TERMINATED NORMALLY****
TOTAL RUN TIME: 0 days 0 hours 0 minutes 6 seconds 185 msec
