                         Program Version 4.2.0 -  RELEASE  -
|  1> #
|  2> # Au03N0_D3H M06-D3BJ/Def2-TZVPPD
|  3> #
|  4> ! m06 d3zero def2-tzvppd def2/jk grid4 nofinalgrid
|  5>
|  6> *xyz 0 2
|  7> Au       0.000000    1.515176   -0.000000
|  8> Au       1.312181   -0.757588    0.000000
|  9> Au      -1.312181   -0.757588   -0.000000
| 10> *
| 11>
| 12> %maxcore 5000
| 13>
| 14> %pal
| 15> nprocs = 24
| 16> end
| 17>
| 18>
| 19>                          ****END OF INPUT****

CARTESIAN COORDINATES (ANGSTROEM)
---------------------------------
  Au     0.000000    1.515176   -0.000000
  Au     1.312181   -0.757588    0.000000
  Au    -1.312181   -0.757588   -0.000000

 Total Charge           Charge          ....    0
 Multiplicity           Mult            ....    2
 Number of Electrons    NEL             ....   57
 Basis Dimension        Dim             ....  177

ORBITAL ENERGIES
----------------
                 SPIN UP ORBITALS
  NO   OCC          E(Eh)            E(eV)
   0   1.0000      -4.155473      -113.0762
   1   1.0000      -4.155143      -113.0672
   2   1.0000      -4.139750      -112.6483
   3   1.0000      -2.348290       -63.9002
   4   1.0000      -2.342803       -63.7509
   5   1.0000      -2.341290       -63.7097
   6   1.0000      -2.338793       -63.6418
   7   1.0000      -2.338281       -63.6279
   8   1.0000      -2.338198       -63.6256
   9   1.0000      -2.328690       -63.3669
  10   1.0000      -2.325071       -63.2684
  11   1.0000      -2.320173       -63.1351
  12   1.0000      -0.413790       -11.2598
  13   1.0000      -0.381946       -10.3933
  14   1.0000      -0.374657       -10.1949
  15   1.0000      -0.372241       -10.1292
  16   1.0000      -0.351141        -9.5550
  17   1.0000      -0.346365        -9.4251
  18   1.0000      -0.340840        -9.2747
  19   1.0000      -0.319163        -8.6849
  20   1.0000      -0.314043        -8.5455
  21   1.0000      -0.312760        -8.5106
  22   1.0000      -0.308661        -8.3991
  23   1.0000      -0.306192        -8.3319
  24   1.0000      -0.301828        -8.2132
  25   1.0000      -0.299916        -8.1611
  26   1.0000      -0.296749        -8.0749
  27   1.0000      -0.279917        -7.6169
  28   1.0000      -0.178816        -4.8658
  29   0.0000      -0.140810        -3.8316
  30   0.0000      -0.045923        -1.2496
  31   0.0000      -0.022662        -0.6167
  32   0.0000      -0.009982        -0.2716
  33   0.0000      -0.006543        -0.1780

                 SPIN DOWN ORBITALS
  NO   OCC          E(Eh)            E(eV)
   0   1.0000      -4.154122      -113.0394
   1   1.0000      -4.153794      -113.0305
   2   1.0000      -4.136198      -112.5517
   3   1.0000      -2.346660       -63.8559
   4   1.0000      -2.339694       -63.6663
   5   1.0000      -2.338911       -63.6450
   6   1.0000      -2.337937       -63.6185
   7   1.0000      -2.337611       -63.6096
   8   1.0000      -2.337347       -63.6024
   9   1.0000      -2.321805       -63.1795
  10   1.0000      -2.321584       -63.1735
  11   1.0000      -2.317528       -63.0631
  12   1.0000      -0.407991       -11.1020
  13   1.0000      -0.379922       -10.3382
  14   1.0000      -0.370520       -10.0824
  15   1.0000      -0.368650       -10.0315
  16   1.0000      -0.348550        -9.4845
  17   1.0000      -0.345135        -9.3916
  18   1.0000      -0.338606        -9.2139
  19   1.0000      -0.317779        -8.6472
  20   1.0000      -0.312641        -8.5074
  21   1.0000      -0.312495        -8.5034
  22   1.0000      -0.305874        -8.3233
  23   1.0000      -0.301191        -8.1958
  24   1.0000      -0.299090        -8.1387
  25   1.0000      -0.295389        -8.0380
  26   1.0000      -0.292147        -7.9497
  27   1.0000      -0.274889        -7.4801
  28   0.0000      -0.135766        -3.6944
  29   0.0000      -0.120848        -3.2884
  30   0.0000      -0.043712        -1.1895
  31   0.0000      -0.016387        -0.4459
  32   0.0000       0.001187         0.0323

MULLIKEN ATOMIC CHARGES AND SPIN POPULATIONS
--------------------------------------------
   0 Au:   -0.064005    0.566441
   1 Au:    0.032005    0.216778
   2 Au:    0.031999    0.216781
Sum of atomic charges         :   -0.0000000

LOEWDIN ATOMIC CHARGES AND SPIN POPULATIONS
-------------------------------------------
   0 Au:   -0.065062    0.493162
   1 Au:    0.032531    0.253419
   2 Au:    0.032530    0.253420

  Mayer bond orders larger than 0.100000
B(  0-Au,  1-Au) :   0.6617 B(  0-Au,  2-Au) :   0.6617 B(  1-Au,  2-Au) :   0.8043

Dispersion correction           -0.000010107
FINAL SINGLE POINT ENERGY      -407.333953561176

DIPOLE MOMENT
-------------
                                X             Y             Z
Electronic contribution:      0.00000      -0.45559      -0.00000
Nuclear contribution   :      0.00000       0.00000       0.00000
                        -----------------------------------------
Total Dipole Moment    :      0.00000      -0.45559      -0.00000
                        -----------------------------------------
Magnitude (a.u.)       :      0.45559
Magnitude (Debye)      :      1.15803

Rotational constants in cm-1:     0.024853     0.024853     0.012427
Rotational constants in MHz :   745.088417   745.088311   372.544182

                             ****ORCA TERMINATED NORMALLY****
TOTAL RUN TIME: 0 days 0 hours 0 minutes 9 seconds 381 msec
