                         Program Version 4.2.0 -  RELEASE  -
|  1> #
|  2> # Au03N0_LIN M06-D3BJ/Def2-TZVPPD
|  3> #
|  4> ! m06 d3zero def2-tzvppd def2/jk grid4 nofinalgrid
|  5>
|  6> *xyz 0 2
|  7> Au       0.000000    0.000000    0.000000
|  8> Au       0.000000    0.000000    2.547414
|  9> Au       0.000000    0.000000   -2.547414
| 10> *
| 11>
| 12> %maxcore 5000
| 13>
| 14> %pal
| 15> nprocs = 24
| 16> end
| 17>
| 18>
| 19>                          ****END OF INPUT****

CARTESIAN COORDINATES (ANGSTROEM)
---------------------------------
  Au     0.000000    0.000000    0.000000
  Au     0.000000    0.000000    2.547414
  Au     0.000000    0.000000   -2.547414

 Total Charge           Charge          ....    0
 Multiplicity           Mult            ....    2
 Number of Electrons    NEL             ....   57
 Basis Dimension        Dim             ....  177

ORBITAL ENERGIES
----------------
                 SPIN UP ORBITALS
  NO   OCC          E(Eh)            E(eV)
   0   1.0000      -4.146529      -112.8328
   1   1.0000      -4.146519      -112.8325
   2   1.0000      -4.135098      -112.5217
   3   1.0000      -2.339098       -63.6501
   4   1.0000      -2.335636       -63.5559
   5   1.0000      -2.330962       -63.4287
   6   1.0000      -2.330962       -63.4287
   7   1.0000      -2.330941       -63.4281
   8   1.0000      -2.330941       -63.4281
   9   1.0000      -2.322374       -63.1950
  10   1.0000      -2.317840       -63.0716
  11   1.0000      -2.317840       -63.0716
  12   1.0000      -0.407163       -11.0795
  13   1.0000      -0.364423        -9.9165
  14   1.0000      -0.364423        -9.9165
  15   1.0000      -0.337782        -9.1915
  16   1.0000      -0.333578        -9.0771
  17   1.0000      -0.333578        -9.0771
  18   1.0000      -0.327846        -8.9211
  19   1.0000      -0.327817        -8.9204
  20   1.0000      -0.324666        -8.8346
  21   1.0000      -0.324637        -8.8338
  22   1.0000      -0.304624        -8.2893
  23   1.0000      -0.304585        -8.2882
  24   1.0000      -0.287202        -7.8152
  25   1.0000      -0.284538        -7.7427
  26   1.0000      -0.284538        -7.7427
  27   1.0000      -0.275292        -7.4911
  28   1.0000      -0.245126        -6.6702
  29   0.0000      -0.099664        -2.7120
  30   0.0000      -0.038601        -1.0504
  31   0.0000      -0.038601        -1.0504
  32   0.0000      -0.021534        -0.5860
  33   0.0000      -0.001729        -0.0471

                 SPIN DOWN ORBITALS
  NO   OCC          E(Eh)            E(eV)
   0   1.0000      -4.144222      -112.7700
   1   1.0000      -4.144209      -112.7696
   2   1.0000      -4.135655      -112.5369
   3   1.0000      -2.338233       -63.6266
   4   1.0000      -2.333982       -63.5109
   5   1.0000      -2.327352       -63.3305
   6   1.0000      -2.327352       -63.3305
   7   1.0000      -2.327300       -63.3291
   8   1.0000      -2.327300       -63.3291
   9   1.0000      -2.322770       -63.2058
  10   1.0000      -2.318189       -63.0811
  11   1.0000      -2.318189       -63.0811
  12   1.0000      -0.405480       -11.0337
  13   1.0000      -0.362678        -9.8690
  14   1.0000      -0.362678        -9.8690
  15   1.0000      -0.334935        -9.1140
  16   1.0000      -0.330217        -8.9857
  17   1.0000      -0.330217        -8.9857
  18   1.0000      -0.324205        -8.8221
  19   1.0000      -0.324170        -8.8211
  20   1.0000      -0.320266        -8.7149
  21   1.0000      -0.320232        -8.7139
  22   1.0000      -0.303890        -8.2693
  23   1.0000      -0.303849        -8.2682
  24   1.0000      -0.282575        -7.6893
  25   1.0000      -0.282575        -7.6893
  26   1.0000      -0.277250        -7.5444
  27   1.0000      -0.267783        -7.2867
  28   0.0000      -0.189338        -5.1522
  29   0.0000      -0.088490        -2.4079
  30   0.0000      -0.033633        -0.9152
  31   0.0000      -0.033633        -0.9152
  32   0.0000      -0.009097        -0.2475

MULLIKEN ATOMIC CHARGES AND SPIN POPULATIONS
--------------------------------------------
   0 Au:   -0.120904    0.205906
   1 Au:    0.060449    0.397046
   2 Au:    0.060455    0.397048
Sum of atomic charges         :   -0.0000000

LOEWDIN ATOMIC CHARGES AND SPIN POPULATIONS
-------------------------------------------
   0 Au:   -0.174115    0.302917
   1 Au:    0.087058    0.348542
   2 Au:    0.087058    0.348542

  Mayer bond orders larger than 0.100000
B(  0-Au,  1-Au) :   0.8320 B(  0-Au,  2-Au) :   0.8320 B(  1-Au,  2-Au) :   0.2927

Dispersion correction           -0.000256933
FINAL SINGLE POINT ENERGY      -407.338109790861

DIPOLE MOMENT
-------------
                                X             Y             Z
Electronic contribution:      0.00000      -0.00000       0.00000
Nuclear contribution   :      0.00000       0.00000       0.00000
                        -----------------------------------------
Total Dipole Moment    :      0.00000      -0.00000       0.00000
                        -----------------------------------------
Magnitude (a.u.)       :      0.00000
Magnitude (Debye)      :      0.00000

Rotational constants in cm-1:     0.000000     0.006594     0.006594
Rotational constants in MHz :     0.000000   197.695224   197.695224

                             ****ORCA TERMINATED NORMALLY****
TOTAL RUN TIME: 0 days 0 hours 0 minutes 9 seconds 689 msec
