                         Program Version 4.2.0 -  RELEASE  -
|  1> #
|  2> # Au03C1_LIN M06-D3BJ/Def2-TZVPPD
|  3> #
|  4> ! m06 d3zero def2-tzvppd def2/jk grid4 nofinalgrid
|  5>
|  6> *xyz 1 1
|  7> Au       0.000000    0.000000    0.000000
|  8> Au       0.000000    0.000000    2.576864
|  9> Au       0.000000    0.000000   -2.576864
| 10> *
| 11>
| 12> %maxcore 5000
| 13>
| 14> %pal
| 15> nprocs = 24
| 16> end
| 17>
| 18>
| 19>                          ****END OF INPUT****

CARTESIAN COORDINATES (ANGSTROEM)
---------------------------------
  Au     0.000000    0.000000    0.000000
  Au     0.000000    0.000000    2.576864
  Au     0.000000    0.000000   -2.576864

 Total Charge           Charge          ....    1
 Multiplicity           Mult            ....    1
 Number of Electrons    NEL             ....   56
 Basis Dimension        Dim             ....  177

ORBITAL ENERGIES
----------------

  NO   OCC          E(Eh)            E(eV)
   0   2.0000      -4.346391      -118.2713
   1   2.0000      -4.346390      -118.2713
   2   2.0000      -4.311066      -117.3101
   3   2.0000      -2.536856       -69.0314
   4   2.0000      -2.535731       -69.0007
   5   2.0000      -2.531043       -68.8732
   6   2.0000      -2.531043       -68.8732
   7   2.0000      -2.531020       -68.8726
   8   2.0000      -2.531020       -68.8726
   9   2.0000      -2.502972       -68.1093
  10   2.0000      -2.493167       -67.8425
  11   2.0000      -2.493167       -67.8425
  12   2.0000      -0.595091       -16.1932
  13   2.0000      -0.554146       -15.0791
  14   2.0000      -0.554146       -15.0791
  15   2.0000      -0.536544       -14.6001
  16   2.0000      -0.532459       -14.4889
  17   2.0000      -0.532459       -14.4889
  18   2.0000      -0.525624       -14.3030
  19   2.0000      -0.525592       -14.3021
  20   2.0000      -0.524496       -14.2723
  21   2.0000      -0.524464       -14.2714
  22   2.0000      -0.481011       -13.0890
  23   2.0000      -0.480971       -13.0879
  24   2.0000      -0.472473       -12.8566
  25   2.0000      -0.472473       -12.8566
  26   2.0000      -0.471140       -12.8204
  27   2.0000      -0.444595       -12.0981
  28   0.0000      -0.375022       -10.2049
  29   0.0000      -0.259500        -7.0614
  30   0.0000      -0.190830        -5.1927
  31   0.0000      -0.190830        -5.1927
  32   0.0000      -0.167331        -4.5533

MULLIKEN ATOMIC CHARGES
-----------------------
   0 Au:    0.192316
   1 Au:    0.403840
   2 Au:    0.403844
Sum of atomic charges:    1.0000000

LOEWDIN ATOMIC CHARGES
----------------------
   0 Au:    0.151758
   1 Au:    0.424121
   2 Au:    0.424121

  Mayer bond orders larger than 0.100000
B(  0-Au,  1-Au) :   0.6342 B(  0-Au,  2-Au) :   0.6342 B(  1-Au,  2-Au) :   0.4454

Dispersion correction           -0.000254367
FINAL SINGLE POINT ENERGY      -407.029344878111

DIPOLE MOMENT
-------------
                                X             Y             Z
Electronic contribution:      0.00000       0.00000       0.00000
Nuclear contribution   :      0.00000       0.00000       0.00000
                        -----------------------------------------
Total Dipole Moment    :      0.00000       0.00000       0.00000
                        -----------------------------------------
Magnitude (a.u.)       :      0.00000
Magnitude (Debye)      :      0.00000

Rotational constants in cm-1:     0.000000     0.006445     0.006445
Rotational constants in MHz :     0.000000   193.202279   193.202279

                             ****ORCA TERMINATED NORMALLY****
TOTAL RUN TIME: 0 days 0 hours 0 minutes 9 seconds 776 msec
