                         Program Version 4.2.0 -  RELEASE  -
|  1> #
|  2> # Au03C1_D3H M06-D3BJ/Def2-TZVPPD
|  3> #
|  4> ! m06 d3zero def2-tzvppd def2/jk grid4 nofinalgrid
|  5>
|  6> *xyz 1 1
|  7> Au       0.000000    1.501400   -0.000000
|  8> Au       1.300251   -0.750700   -0.000000
|  9> Au      -1.300251   -0.750700   -0.000000
| 10> *
| 11>
| 12> %maxcore 5000
| 13>
| 14> %pal
| 15> nprocs = 24
| 16> end
| 17>
| 18>
| 19>                          ****END OF INPUT****

CARTESIAN COORDINATES (ANGSTROEM)
---------------------------------
  Au     0.000000    1.501400   -0.000000
  Au     1.300251   -0.750700   -0.000000
  Au    -1.300251   -0.750700   -0.000000

 Total Charge           Charge          ....    1
 Multiplicity           Mult            ....    1
 Number of Electrons    NEL             ....   56
 Basis Dimension        Dim             ....  177

ORBITAL ENERGIES
----------------

  NO   OCC          E(Eh)            E(eV)
   0   2.0000      -4.347873      -118.3116
   1   2.0000      -4.347320      -118.2966
   2   2.0000      -4.347318      -118.2965
   3   2.0000      -2.542925       -69.1965
   4   2.0000      -2.536983       -69.0348
   5   2.0000      -2.536977       -69.0347
   6   2.0000      -2.531528       -68.8864
   7   2.0000      -2.531517       -68.8861
   8   2.0000      -2.530970       -68.8712
   9   2.0000      -2.530236       -68.8512
  10   2.0000      -2.529256       -68.8245
  11   2.0000      -2.529253       -68.8245
  12   2.0000      -0.611076       -16.6282
  13   2.0000      -0.577243       -15.7076
  14   2.0000      -0.577238       -15.7074
  15   2.0000      -0.569690       -15.5021
  16   2.0000      -0.547757       -14.9052
  17   2.0000      -0.540322       -14.7029
  18   2.0000      -0.540319       -14.7028
  19   2.0000      -0.510295       -13.8858
  20   2.0000      -0.510288       -13.8856
  21   2.0000      -0.504038       -13.7156
  22   2.0000      -0.504031       -13.7154
  23   2.0000      -0.502988       -13.6870
  24   2.0000      -0.501461       -13.6455
  25   2.0000      -0.501457       -13.6453
  26   2.0000      -0.489035       -13.3073
  27   2.0000      -0.474936       -12.9237
  28   0.0000      -0.307070        -8.3558
  29   0.0000      -0.307069        -8.3558
  30   0.0000      -0.208070        -5.6619
  31   0.0000      -0.177512        -4.8303
  32   0.0000      -0.165798        -4.5116

MULLIKEN ATOMIC CHARGES
-----------------------
   0 Au:    0.333509
   1 Au:    0.333252
   2 Au:    0.333238
Sum of atomic charges:    1.0000000

LOEWDIN ATOMIC CHARGES
----------------------
   0 Au:    0.333334
   1 Au:    0.333333
   2 Au:    0.333333

  Mayer bond orders larger than 0.100000
B(  0-Au,  1-Au) :   0.6461 B(  0-Au,  2-Au) :   0.6461 B(  1-Au,  2-Au) :   0.6461

Dispersion correction           -0.000009395
FINAL SINGLE POINT ENERGY      -407.088206198794

DIPOLE MOMENT
-------------
                                X             Y             Z
Electronic contribution:      0.00000       0.00000       0.00000
Nuclear contribution   :      0.00000       0.00000      -0.00000
                        -----------------------------------------
Total Dipole Moment    :      0.00000       0.00000       0.00000
                        -----------------------------------------
Magnitude (a.u.)       :      0.00000
Magnitude (Debye)      :      0.00000

Rotational constants in cm-1:     0.025312     0.025312     0.012656
Rotational constants in MHz :   758.824167   758.823632   379.411950

                             ****ORCA TERMINATED NORMALLY****
TOTAL RUN TIME: 0 days 0 hours 0 minutes 9 seconds 241 msec
