                         Program Version 4.2.0 -  RELEASE  -
|  1> #
|  2> # Au04N0 M06-D3BJ/Def2-TZVPPD
|  3> #
|  4> ! m06 d3zero def2-tzvppd def2/jk grid4 nofinalgrid
|  5>
|  6> *xyz 0 1
|  7> Au      -0.788661   -0.016684    2.209526
|  8> Au      -1.223332   -0.011467   -0.436740
|  9> Au       0.788385    0.016579   -2.209564
| 10> Au       1.223608    0.011572    0.436778
| 11> *
| 12>
| 13> %maxcore 5000
| 14>
| 15> %pal
| 16> nprocs = 24
| 17> end
| 18>
| 19>
| 20>                          ****END OF INPUT****

CARTESIAN COORDINATES (ANGSTROEM)
---------------------------------
  Au    -0.788661   -0.016684    2.209526
  Au    -1.223332   -0.011467   -0.436740
  Au     0.788385    0.016579   -2.209564
  Au     1.223608    0.011572    0.436778

 Total Charge           Charge          ....    0
 Multiplicity           Mult            ....    1
 Number of Electrons    NEL             ....   76
 Basis Dimension        Dim             ....  236

ORBITAL ENERGIES
----------------

  NO   OCC          E(Eh)            E(eV)
   0   2.0000      -4.163171      -113.2856
   1   2.0000      -4.162791      -113.2753
   2   2.0000      -4.137449      -112.5857
   3   2.0000      -4.137441      -112.5855
   4   2.0000      -2.355521       -64.0970
   5   2.0000      -2.348933       -63.9177
   6   2.0000      -2.347816       -63.8873
   7   2.0000      -2.347488       -63.8784
   8   2.0000      -2.346956       -63.8639
   9   2.0000      -2.346300       -63.8461
  10   2.0000      -2.325499       -63.2800
  11   2.0000      -2.324985       -63.2660
  12   2.0000      -2.322731       -63.2047
  13   2.0000      -2.322516       -63.1989
  14   2.0000      -2.318751       -63.0964
  15   2.0000      -2.318736       -63.0960
  16   2.0000      -0.413323       -11.2471
  17   2.0000      -0.411084       -11.1862
  18   2.0000      -0.382043       -10.3959
  19   2.0000      -0.378933       -10.3113
  20   2.0000      -0.378130       -10.2895
  21   2.0000      -0.365277        -9.9397
  22   2.0000      -0.349662        -9.5148
  23   2.0000      -0.348368        -9.4796
  24   2.0000      -0.327712        -8.9175
  25   2.0000      -0.321375        -8.7450
  26   2.0000      -0.320472        -8.7205
  27   2.0000      -0.314117        -8.5476
  28   2.0000      -0.312182        -8.4949
  29   2.0000      -0.310481        -8.4486
  30   2.0000      -0.308303        -8.3893
  31   2.0000      -0.299941        -8.1618
  32   2.0000      -0.298491        -8.1223
  33   2.0000      -0.297234        -8.0882
  34   2.0000      -0.295752        -8.0478
  35   2.0000      -0.294860        -8.0236
  36   2.0000      -0.276355        -7.5200
  37   2.0000      -0.224228        -6.1016
  38   0.0000      -0.140388        -3.8201
  39   0.0000      -0.098662        -2.6847
  40   0.0000      -0.055248        -1.5034
  41   0.0000      -0.026449        -0.7197
  42   0.0000      -0.022213        -0.6044

MULLIKEN ATOMIC CHARGES
-----------------------
   0 Au:    0.048950
   1 Au:   -0.049053
   2 Au:    0.048991
   3 Au:   -0.048889
Sum of atomic charges:    0.0000000

LOEWDIN ATOMIC CHARGES
----------------------
   0 Au:    0.084043
   1 Au:   -0.084132
   2 Au:    0.084061
   3 Au:   -0.083972

  Mayer bond orders larger than 0.100000
B(  0-Au,  1-Au) :   0.6090 B(  0-Au,  2-Au) :   0.2031 B(  0-Au,  3-Au) :   0.6091
B(  1-Au,  2-Au) :   0.6093 B(  1-Au,  3-Au) :   0.6201 B(  2-Au,  3-Au) :   0.6088

Dispersion correction           -0.000247737
FINAL SINGLE POINT ENERGY      -543.168683163618

DIPOLE MOMENT
-------------
                                X             Y             Z
Electronic contribution:      0.00034       0.00002      -0.00000
Nuclear contribution   :     -0.00000      -0.00000       0.00000
                        -----------------------------------------
Total Dipole Moment    :      0.00034       0.00002      -0.00000
                        -----------------------------------------
Magnitude (a.u.)       :      0.00034
Magnitude (Debye)      :      0.00086

Rotational constants in cm-1:     0.025355     0.007775     0.005950
Rotational constants in MHz :   760.119680   233.080651   178.382130

                             ****ORCA TERMINATED NORMALLY****
TOTAL RUN TIME: 0 days 0 hours 0 minutes 14 seconds 257 msec
