                         Program Version 4.2.0 -  RELEASE  -
|  1> #
|  2> # Au04C2_NH3_A M06-D3BJ/Def2-TZVPPD
|  3> #
|  4> ! m06 d3zero def2-tzvppd def2/jk grid4 nofinalgrid
|  5>
|  6> *xyz 2 1
|  7> Au      -0.274490    1.572639   -0.000000
|  8> Au       1.635934   -0.418177    0.000000
|  9> Au      -0.639028   -0.815642    1.333593
| 10> Au      -0.639028   -0.815642   -1.333593
| 11> N       -0.639028    3.654013   -0.000000
| 12> H       -0.235750    4.112347    0.824759
| 13> H       -0.235750    4.112347   -0.824759
| 14> H       -1.642949    3.866239   -0.000000
| 15> *
| 16>
| 17> %maxcore 5000
| 18>
| 19> %pal
| 20> nprocs = 24
| 21> end
| 22>
| 23>
| 24>                          ****END OF INPUT****

CARTESIAN COORDINATES (ANGSTROEM)
---------------------------------
  Au    -0.274490    1.572639   -0.000000
  Au     1.635934   -0.418177    0.000000
  Au    -0.639028   -0.815642    1.333593
  Au    -0.639028   -0.815642   -1.333593
  N     -0.639028    3.654013   -0.000000
  H     -0.235750    4.112347    0.824759
  H     -0.235750    4.112347   -0.824759
  H     -1.642949    3.866239   -0.000000

 Total Charge           Charge          ....    2
 Multiplicity           Mult            ....    1
 Number of Electrons    NEL             ....   84
 Basis Dimension        Dim             ....  324

ORBITAL ENERGIES
----------------

  NO   OCC          E(Eh)            E(eV)
   0   2.0000     -14.748866      -401.3371
   1   2.0000      -4.497125      -122.3730
   2   2.0000      -4.496742      -122.3626
   3   2.0000      -4.496731      -122.3623
   4   2.0000      -4.493474      -122.2737
   5   2.0000      -2.690690       -73.2174
   6   2.0000      -2.685150       -73.0666
   7   2.0000      -2.685148       -73.0666
   8   2.0000      -2.683480       -73.0212
   9   2.0000      -2.681484       -72.9669
  10   2.0000      -2.681473       -72.9666
  11   2.0000      -2.679754       -72.9198
  12   2.0000      -2.679742       -72.9195
  13   2.0000      -2.679615       -72.9160
  14   2.0000      -2.679234       -72.9057
  15   2.0000      -2.675597       -72.8067
  16   2.0000      -2.675591       -72.8065
  17   2.0000      -1.231411       -33.5084
  18   2.0000      -0.830680       -22.6040
  19   2.0000      -0.830647       -22.6030
  20   2.0000      -0.792514       -21.5654
  21   2.0000      -0.745656       -20.2903
  22   2.0000      -0.725434       -19.7401
  23   2.0000      -0.725395       -19.7390
  24   2.0000      -0.716336       -19.4925
  25   2.0000      -0.709135       -19.2966
  26   2.0000      -0.709130       -19.2964
  27   2.0000      -0.693662       -18.8755
  28   2.0000      -0.687601       -18.7106
  29   2.0000      -0.687596       -18.7104
  30   2.0000      -0.660216       -17.9654
  31   2.0000      -0.657059       -17.8795
  32   2.0000      -0.657038       -17.8789
  33   2.0000      -0.655294       -17.8315
  34   2.0000      -0.654781       -17.8175
  35   2.0000      -0.654772       -17.8173
  36   2.0000      -0.651831       -17.7372
  37   2.0000      -0.651816       -17.7368
  38   2.0000      -0.626155       -17.0385
  39   2.0000      -0.625989       -17.0340
  40   2.0000      -0.625977       -17.0337
  41   2.0000      -0.615532       -16.7495
  42   0.0000      -0.446281       -12.1439
  43   0.0000      -0.446261       -12.1434
  44   0.0000      -0.401621       -10.9287
  45   0.0000      -0.306838        -8.3495
  46   0.0000      -0.302629        -8.2350

MULLIKEN ATOMIC CHARGES
-----------------------
   0 Au:    0.333061
   1 Au:    0.421099
   2 Au:    0.421033
   3 Au:    0.421050
   4 N :   -0.151097
   5 H :    0.184934
   6 H :    0.184933
   7 H :    0.184987
Sum of atomic charges:    2.0000000

LOEWDIN ATOMIC CHARGES
----------------------
   0 Au:    0.425743
   1 Au:    0.453600
   2 Au:    0.453611
   3 Au:    0.453612
   4 N :    0.398015
   5 H :   -0.061541
   6 H :   -0.061541
   7 H :   -0.061500

  Mayer bond orders larger than 0.100000
B(  0-Au,  1-Au) :   0.3810 B(  0-Au,  2-Au) :   0.3807 B(  0-Au,  3-Au) :   0.3807
B(  0-Au,  4-N ) :   0.6833 B(  1-Au,  2-Au) :   0.5061 B(  1-Au,  3-Au) :   0.5061
B(  2-Au,  3-Au) :   0.5060 B(  4-N ,  5-H ) :   1.0027 B(  4-N ,  6-H ) :   1.0027
B(  4-N ,  7-H ) :   1.0022

Dispersion correction           -0.000679191
FINAL SINGLE POINT ENERGY      -599.095761490879

DIPOLE MOMENT
-------------
                                X             Y             Z
Electronic contribution:     10.07741     -57.62623      -0.00000
Nuclear contribution   :    -10.53350      60.23199       0.00000
                        -----------------------------------------
Total Dipole Moment    :     -0.45609       2.60575      -0.00000
                        -----------------------------------------
Magnitude (a.u.)       :      2.64537
Magnitude (Debye)      :      6.72399

Rotational constants in cm-1:     0.012010     0.009744     0.009743
Rotational constants in MHz :   360.039216   292.121240   292.077350

                             ****ORCA TERMINATED NORMALLY****
TOTAL RUN TIME: 0 days 0 hours 0 minutes 23 seconds 504 msec
