                         Program Version 4.2.0 -  RELEASE  -
|  1> #
|  2> # Au04C2_H_F M06-D3BJ/Def2-TZVPPD
|  3> #
|  4> ! m06 d3zero def2-tzvppd def2/jk grid4 nofinalgrid
|  5>
|  6> *xyz 2 2
|  7> Au       0.000000    1.567068   -0.568281
|  8> Au       1.357120   -0.783534   -0.568281
|  9> Au      -1.357120   -0.783534   -0.568281
| 10> Au       0.000000    0.000000    1.725922
| 11> H        0.000000    0.000000   -1.665144
| 12> *
| 13>
| 14> %maxcore 5000
| 15>
| 16> %pal
| 17> nprocs = 24
| 18> end
| 19>
| 20>
| 21>                          ****END OF INPUT****

CARTESIAN COORDINATES (ANGSTROEM)
---------------------------------
  Au     0.000000    1.567068   -0.568281
  Au     1.357120   -0.783534   -0.568281
  Au    -1.357120   -0.783534   -0.568281
  Au     0.000000    0.000000    1.725922
  H      0.000000    0.000000   -1.665144

 Total Charge           Charge          ....    2
 Multiplicity           Mult            ....    2
 Number of Electrons    NEL             ....   75
 Basis Dimension        Dim             ....  253

ORBITAL ENERGIES
----------------
                 SPIN UP ORBITALS
  NO   OCC          E(Eh)            E(eV)
   0   1.0000      -4.554859      -123.9440
   1   1.0000      -4.554556      -123.9358
   2   1.0000      -4.554553      -123.9357
   3   1.0000      -4.516613      -122.9033
   4   1.0000      -2.748261       -74.7840
   5   1.0000      -2.743203       -74.6464
   6   1.0000      -2.743202       -74.6463
   7   1.0000      -2.738836       -74.5275
   8   1.0000      -2.738482       -74.5179
   9   1.0000      -2.738481       -74.5179
  10   1.0000      -2.737587       -74.4935
  11   1.0000      -2.737583       -74.4934
  12   1.0000      -2.736502       -74.4640
  13   1.0000      -2.706029       -73.6348
  14   1.0000      -2.699699       -73.4625
  15   1.0000      -2.699696       -73.4625
  16   1.0000      -0.888848       -24.1868
  17   1.0000      -0.811350       -22.0780
  18   1.0000      -0.776174       -21.1208
  19   1.0000      -0.776172       -21.1207
  20   1.0000      -0.757285       -20.6068
  21   1.0000      -0.757283       -20.6067
  22   1.0000      -0.752912       -20.4878
  23   1.0000      -0.735882       -20.0244
  24   1.0000      -0.735880       -20.0243
  25   1.0000      -0.731125       -19.8949
  26   1.0000      -0.716702       -19.5024
  27   1.0000      -0.716696       -19.5023
  28   1.0000      -0.713015       -19.4021
  29   1.0000      -0.713007       -19.4019
  30   1.0000      -0.711249       -19.3541
  31   1.0000      -0.684678       -18.6310
  32   1.0000      -0.684570       -18.6281
  33   1.0000      -0.684550       -18.6275
  34   1.0000      -0.682554       -18.5732
  35   1.0000      -0.670978       -18.2583
  36   1.0000      -0.670977       -18.2582
  37   1.0000      -0.575394       -15.6573
  38   0.0000      -0.492370       -13.3981
  39   0.0000      -0.492366       -13.3980
  40   0.0000      -0.418483       -11.3875
  41   0.0000      -0.344075        -9.3628
  42   0.0000      -0.337530        -9.1847

                 SPIN DOWN ORBITALS
  NO   OCC          E(Eh)            E(eV)
   0   1.0000      -4.552508      -123.8800
   1   1.0000      -4.552219      -123.8722
   2   1.0000      -4.552217      -123.8721
   3   1.0000      -4.514146      -122.8361
   4   1.0000      -2.744886       -74.6921
   5   1.0000      -2.740252       -74.5661
   6   1.0000      -2.740252       -74.5660
   7   1.0000      -2.736442       -74.4624
   8   1.0000      -2.736440       -74.4623
   9   1.0000      -2.735801       -74.4449
  10   1.0000      -2.735089       -74.4256
  11   1.0000      -2.734980       -74.4226
  12   1.0000      -2.734979       -74.4226
  13   1.0000      -2.700838       -73.4935
  14   1.0000      -2.697621       -73.4060
  15   1.0000      -2.697619       -73.4059
  16   1.0000      -0.871948       -23.7269
  17   1.0000      -0.805562       -21.9205
  18   1.0000      -0.774688       -21.0803
  19   1.0000      -0.774684       -21.0802
  20   1.0000      -0.753659       -20.5081
  21   1.0000      -0.753658       -20.5081
  22   1.0000      -0.748683       -20.3727
  23   1.0000      -0.733433       -19.9577
  24   1.0000      -0.733431       -19.9577
  25   1.0000      -0.725358       -19.7380
  26   1.0000      -0.712569       -19.3900
  27   1.0000      -0.712567       -19.3899
  28   1.0000      -0.709871       -19.3166
  29   1.0000      -0.709388       -19.3034
  30   1.0000      -0.709384       -19.3033
  31   1.0000      -0.683249       -18.5922
  32   1.0000      -0.681878       -18.5548
  33   1.0000      -0.681856       -18.5543
  34   1.0000      -0.677695       -18.4410
  35   1.0000      -0.665649       -18.1132
  36   1.0000      -0.665648       -18.1132
  37   0.0000      -0.509061       -13.8523
  38   0.0000      -0.489281       -13.3140
  39   0.0000      -0.489278       -13.3139
  40   0.0000      -0.404803       -11.0152
  41   0.0000      -0.337176        -9.1750

MULLIKEN ATOMIC CHARGES AND SPIN POPULATIONS
--------------------------------------------
   0 Au:    0.514916    0.132177
   1 Au:    0.514706    0.132292
   2 Au:    0.514711    0.132293
   3 Au:    0.440330    0.367918
   4 H :    0.015336    0.235320
Sum of atomic charges         :    2.0000000

LOEWDIN ATOMIC CHARGES AND SPIN POPULATIONS
-------------------------------------------
   0 Au:    0.554860    0.190819
   1 Au:    0.554836    0.190814
   2 Au:    0.554836    0.190814
   3 Au:    0.461417    0.285543
   4 H :   -0.125949    0.142010

  Mayer bond orders larger than 0.100000
B(  0-Au,  1-Au) :   0.4193 B(  0-Au,  2-Au) :   0.4193 B(  0-Au,  3-Au) :   0.4372
B(  0-Au,  4-H ) :   0.3151 B(  1-Au,  2-Au) :   0.4195 B(  1-Au,  3-Au) :   0.4373
B(  1-Au,  4-H ) :   0.3149 B(  2-Au,  3-Au) :   0.4373 B(  2-Au,  4-H ) :   0.3149

Dispersion correction           -0.000059503
FINAL SINGLE POINT ENERGY      -542.976623235919

DIPOLE MOMENT
-------------
                                X             Y             Z
Electronic contribution:     -0.00000       0.00007       2.32728
Nuclear contribution   :      0.00000       0.00000      -2.84605
                        -----------------------------------------
Total Dipole Moment    :     -0.00000       0.00007      -0.51877
                        -----------------------------------------
Magnitude (a.u.)       :      0.51877
Magnitude (Debye)      :      1.31861

Rotational constants in cm-1:     0.011617     0.011195     0.011195
Rotational constants in MHz :   348.279987   335.605170   335.605004

                             ****ORCA TERMINATED NORMALLY****
TOTAL RUN TIME: 0 days 0 hours 0 minutes 22 seconds 391 msec
