                         Program Version 4.2.0 -  RELEASE  -
|  1> #
|  2> # Au04C2_H_A M06-D3BJ/Def2-TZVPPD
|  3> #
|  4> ! m06 d3zero def2-tzvppd def2/jk grid4 nofinalgrid
|  5>
|  6> *xyz 2 2
|  7> Au       0.000000    0.000000    1.750714
|  8> Au      -0.000000    1.549973   -0.597614
|  9> Au       1.342316   -0.774986   -0.597614
| 10> Au      -1.342316   -0.774986   -0.597614
| 11> H        0.000000    0.000000    3.328141
| 12> *
| 13>
| 14> %maxcore 5000
| 15>
| 16> %pal
| 17> nprocs = 24
| 18> end
| 19>
| 20>
| 21>                          ****END OF INPUT****

CARTESIAN COORDINATES (ANGSTROEM)
---------------------------------
  Au     0.000000    0.000000    1.750714
  Au    -0.000000    1.549973   -0.597614
  Au     1.342316   -0.774986   -0.597614
  Au    -1.342316   -0.774986   -0.597614
  H      0.000000    0.000000    3.328141

 Total Charge           Charge          ....    2
 Multiplicity           Mult            ....    2
 Number of Electrons    NEL             ....   75
 Basis Dimension        Dim             ....  253

ORBITAL ENERGIES
----------------
                 SPIN UP ORBITALS
  NO   OCC          E(Eh)            E(eV)
   0   1.0000      -4.566451      -124.2594
   1   1.0000      -4.534392      -123.3871
   2   1.0000      -4.534047      -123.3777
   3   1.0000      -4.534046      -123.3777
   4   1.0000      -2.759494       -75.0896
   5   1.0000      -2.746442       -74.7345
   6   1.0000      -2.746438       -74.7344
   7   1.0000      -2.726638       -74.1956
   8   1.0000      -2.721913       -74.0670
   9   1.0000      -2.721910       -74.0669
  10   1.0000      -2.719093       -73.9903
  11   1.0000      -2.718816       -73.9827
  12   1.0000      -2.718811       -73.9826
  13   1.0000      -2.717032       -73.9342
  14   1.0000      -2.717024       -73.9340
  15   1.0000      -2.716408       -73.9172
  16   1.0000      -0.848572       -23.0908
  17   1.0000      -0.781575       -21.2677
  18   1.0000      -0.770180       -20.9577
  19   1.0000      -0.770177       -20.9576
  20   1.0000      -0.753996       -20.5173
  21   1.0000      -0.753991       -20.5171
  22   1.0000      -0.751330       -20.4447
  23   1.0000      -0.736631       -20.0448
  24   1.0000      -0.736612       -20.0442
  25   1.0000      -0.730194       -19.8696
  26   1.0000      -0.709466       -19.3056
  27   1.0000      -0.709459       -19.3054
  28   1.0000      -0.702302       -19.1106
  29   1.0000      -0.693865       -18.8810
  30   1.0000      -0.693857       -18.8808
  31   1.0000      -0.692825       -18.8527
  32   1.0000      -0.692031       -18.8311
  33   1.0000      -0.692028       -18.8310
  34   1.0000      -0.678301       -18.4575
  35   1.0000      -0.678292       -18.4573
  36   1.0000      -0.663094       -18.0437
  37   1.0000      -0.640396       -17.4261
  38   0.0000      -0.479689       -13.0530
  39   0.0000      -0.479683       -13.0528
  40   0.0000      -0.420259       -11.4358
  41   0.0000      -0.335606        -9.1323
  42   0.0000      -0.335604        -9.1323

                 SPIN DOWN ORBITALS
  NO   OCC          E(Eh)            E(eV)
   0   1.0000      -4.560196      -124.0892
   1   1.0000      -4.533841      -123.3721
   2   1.0000      -4.533496      -123.3627
   3   1.0000      -4.533496      -123.3627
   4   1.0000      -2.757526       -75.0361
   5   1.0000      -2.735904       -74.4477
   6   1.0000      -2.735902       -74.4477
   7   1.0000      -2.726547       -74.1931
   8   1.0000      -2.721616       -74.0589
   9   1.0000      -2.721612       -74.0588
  10   1.0000      -2.717807       -73.9553
  11   1.0000      -2.717798       -73.9550
  12   1.0000      -2.717554       -73.9484
  13   1.0000      -2.716348       -73.9156
  14   1.0000      -2.716345       -73.9155
  15   1.0000      -2.716055       -73.9076
  16   1.0000      -0.833587       -22.6831
  17   1.0000      -0.776801       -21.1378
  18   1.0000      -0.766308       -20.8523
  19   1.0000      -0.766307       -20.8523
  20   1.0000      -0.751585       -20.4517
  21   1.0000      -0.751578       -20.4515
  22   1.0000      -0.742317       -20.1995
  23   1.0000      -0.730979       -19.8909
  24   1.0000      -0.730961       -19.8905
  25   1.0000      -0.728475       -19.8228
  26   1.0000      -0.704922       -19.1819
  27   1.0000      -0.704910       -19.1816
  28   1.0000      -0.693404       -18.8685
  29   1.0000      -0.693399       -18.8683
  30   1.0000      -0.692359       -18.8401
  31   1.0000      -0.691865       -18.8266
  32   1.0000      -0.691036       -18.8041
  33   1.0000      -0.691033       -18.8040
  34   1.0000      -0.674618       -18.3573
  35   1.0000      -0.674608       -18.3570
  36   1.0000      -0.663081       -18.0434
  37   0.0000      -0.549692       -14.9579
  38   0.0000      -0.478770       -13.0280
  39   0.0000      -0.478764       -13.0278
  40   0.0000      -0.406947       -11.0736
  41   0.0000      -0.332705        -9.0534

MULLIKEN ATOMIC CHARGES AND SPIN POPULATIONS
--------------------------------------------
   0 Au:    0.345886    0.501028
   1 Au:    0.481447    0.046536
   2 Au:    0.481245    0.046614
   3 Au:    0.481246    0.046614
   4 H :    0.210176    0.359207
Sum of atomic charges         :    2.0000000

LOEWDIN ATOMIC CHARGES AND SPIN POPULATIONS
-------------------------------------------
   0 Au:    0.570366    0.490497
   1 Au:    0.486725    0.052509
   2 Au:    0.486744    0.052487
   3 Au:    0.486744    0.052487
   4 H :   -0.030580    0.352018

  Mayer bond orders larger than 0.100000
B(  0-Au,  1-Au) :   0.3501 B(  0-Au,  2-Au) :   0.3502 B(  0-Au,  3-Au) :   0.3502
B(  0-Au,  4-H ) :   0.8391 B(  1-Au,  2-Au) :   0.4952 B(  1-Au,  3-Au) :   0.4952
B(  2-Au,  3-Au) :   0.4953

Dispersion correction           -0.000248246
FINAL SINGLE POINT ENERGY      -542.991393066854

DIPOLE MOMENT
-------------
                                X             Y             Z
Electronic contribution:      0.00000      -0.00006      -5.53001
Nuclear contribution   :      0.00000      -0.00000       5.68843
                        -----------------------------------------
Total Dipole Moment    :      0.00000      -0.00006       0.15841
                        -----------------------------------------
Magnitude (a.u.)       :      0.15841
Magnitude (Debye)      :      0.40266

Rotational constants in cm-1:     0.011875     0.010977     0.010977
Rotational constants in MHz :   356.004762   329.094939   329.094872

                             ****ORCA TERMINATED NORMALLY****
TOTAL RUN TIME: 0 days 0 hours 0 minutes 20 seconds 328 msec
