                         Program Version 4.2.0 -  RELEASE  -
|  1> #
|  2> # Au04C2_NH3_F M06-D3BJ/Def2-TZVPPD
|  3> #
|  4> ! m06 d3zero def2-tzvppd def2/jk grid4 nofinalgrid
|  5>
|  6> *xyz 2 1
|  7> Au       0.000000    1.548281   -0.453246
|  8> Au       1.340851   -0.774141   -0.453246
|  9> Au      -1.340851   -0.774141   -0.453246
| 10> Au       0.000000    0.000000    1.783664
| 11> N        0.000000    0.000000   -3.226055
| 12> H       -0.813891    0.469900   -3.635956
| 13> H        0.813891    0.469900   -3.635956
| 14> H       -0.000000   -0.939800   -3.635956
| 15> *
| 16>
| 17> %maxcore 5000
| 18>
| 19> %pal
| 20> nprocs = 24
| 21> end
| 22>
| 23>
| 24>                          ****END OF INPUT****

CARTESIAN COORDINATES (ANGSTROEM)
---------------------------------
  Au     0.000000    1.548281   -0.453246
  Au     1.340851   -0.774141   -0.453246
  Au    -1.340851   -0.774141   -0.453246
  Au     0.000000    0.000000    1.783664
  N      0.000000    0.000000   -3.226055
  H     -0.813891    0.469900   -3.635956
  H      0.813891    0.469900   -3.635956
  H     -0.000000   -0.939800   -3.635956

 Total Charge           Charge          ....    2
 Multiplicity           Mult            ....    1
 Number of Electrons    NEL             ....   84
 Basis Dimension        Dim             ....  324

ORBITAL ENERGIES
----------------

  NO   OCC          E(Eh)            E(eV)
   0   2.0000     -14.686754      -399.6469
   1   2.0000      -4.508028      -122.6697
   2   2.0000      -4.507668      -122.6599
   3   2.0000      -4.507667      -122.6599
   4   2.0000      -4.502012      -122.5060
   5   2.0000      -2.701294       -73.5059
   6   2.0000      -2.696243       -73.3685
   7   2.0000      -2.696240       -73.3684
   8   2.0000      -2.693242       -73.2868
   9   2.0000      -2.692848       -73.2761
  10   2.0000      -2.692835       -73.2758
  11   2.0000      -2.691211       -73.2316
  12   2.0000      -2.690373       -73.2088
  13   2.0000      -2.690372       -73.2087
  14   2.0000      -2.688406       -73.1553
  15   2.0000      -2.685650       -73.0803
  16   2.0000      -2.685646       -73.0801
  17   2.0000      -1.177041       -32.0289
  18   2.0000      -0.786432       -21.3999
  19   2.0000      -0.775842       -21.1117
  20   2.0000      -0.775837       -21.1116
  21   2.0000      -0.742885       -20.2149
  22   2.0000      -0.738781       -20.1032
  23   2.0000      -0.738779       -20.1032
  24   2.0000      -0.722876       -19.6704
  25   2.0000      -0.722872       -19.6703
  26   2.0000      -0.706617       -19.2280
  27   2.0000      -0.700563       -19.0633
  28   2.0000      -0.700547       -19.0629
  29   2.0000      -0.682810       -18.5802
  30   2.0000      -0.668563       -18.1925
  31   2.0000      -0.668555       -18.1923
  32   2.0000      -0.667502       -18.1637
  33   2.0000      -0.665996       -18.1227
  34   2.0000      -0.665990       -18.1225
  35   2.0000      -0.664404       -18.0793
  36   2.0000      -0.664202       -18.0738
  37   2.0000      -0.664183       -18.0733
  38   2.0000      -0.638138       -17.3646
  39   2.0000      -0.637499       -17.3472
  40   2.0000      -0.637491       -17.3470
  41   2.0000      -0.600363       -16.3367
  42   0.0000      -0.457221       -12.4416
  43   0.0000      -0.457209       -12.4413
  44   0.0000      -0.446274       -12.1437
  45   0.0000      -0.320072        -8.7096
  46   0.0000      -0.313473        -8.5300

MULLIKEN ATOMIC CHARGES
-----------------------
   0 Au:    0.450501
   1 Au:    0.449770
   2 Au:    0.449779
   3 Au:    0.459593
   4 N :   -0.324702
   5 H :    0.171534
   6 H :    0.171535
   7 H :    0.171989
Sum of atomic charges:    2.0000000

LOEWDIN ATOMIC CHARGES
----------------------
   0 Au:    0.466096
   1 Au:    0.466109
   2 Au:    0.466109
   3 Au:    0.471750
   4 N :    0.436315
   5 H :   -0.102129
   6 H :   -0.102129
   7 H :   -0.102122

  Mayer bond orders larger than 0.100000
B(  0-Au,  1-Au) :   0.4442 B(  0-Au,  2-Au) :   0.4442 B(  0-Au,  3-Au) :   0.4419
B(  1-Au,  2-Au) :   0.4445 B(  1-Au,  3-Au) :   0.4421 B(  2-Au,  3-Au) :   0.4421
B(  4-N ,  5-H ) :   1.0258 B(  4-N ,  6-H ) :   1.0258 B(  4-N ,  7-H ) :   1.0252

Dispersion correction           -0.000640990
FINAL SINGLE POINT ENERGY      -599.033597193647

DIPOLE MOMENT
-------------
                                X             Y             Z
Electronic contribution:      0.00000       0.00020      51.70239
Nuclear contribution   :      0.00000       0.00000     -53.58194
                        -----------------------------------------
Total Dipole Moment    :      0.00000       0.00020      -1.87955
                        -----------------------------------------
Magnitude (a.u.)       :      1.87955
Magnitude (Debye)      :      4.77744

Rotational constants in cm-1:     0.011879     0.010264     0.010264
Rotational constants in MHz :   356.111583   307.700803   307.700796

                             ****ORCA TERMINATED NORMALLY****
TOTAL RUN TIME: 0 days 0 hours 0 minutes 26 seconds 160 msec
