                         Program Version 4.2.0 -  RELEASE  -
|  1> #
|  2> # Au04C2 M06-D3BJ/Def2-TZVPPD
|  3> #
|  4> ! m06 d3zero def2-tzvppd def2/jk grid4 nofinalgrid
|  5>
|  6> *xyz 2 1
|  7> Au      -0.000000   -0.000044    1.659420
|  8> Au      -1.354966    0.782292   -0.553161
|  9> Au       1.354966    0.782292   -0.553161
| 10> Au       0.000000   -1.564540   -0.553099
| 11> *
| 12>
| 13> %maxcore 5000
| 14>
| 15> %pal
| 16> nprocs = 24
| 17> end
| 18>
| 19>
| 20>                          ****END OF INPUT****

CARTESIAN COORDINATES (ANGSTROEM)
---------------------------------
  Au    -0.000000   -0.000044    1.659420
  Au    -1.354966    0.782292   -0.553161
  Au     1.354966    0.782292   -0.553161
  Au     0.000000   -1.564540   -0.553099

 Total Charge           Charge          ....    2
 Multiplicity           Mult            ....    1
 Number of Electrons    NEL             ....   74
 Basis Dimension        Dim             ....  236

ORBITAL ENERGIES
----------------

  NO   OCC          E(Eh)            E(eV)
   0   2.0000      -4.534095      -123.3790
   1   2.0000      -4.533694      -123.3681
   2   2.0000      -4.533693      -123.3681
   3   2.0000      -4.533693      -123.3681
   4   2.0000      -2.727614       -74.2222
   5   2.0000      -2.722118       -74.0726
   6   2.0000      -2.722117       -74.0726
   7   2.0000      -2.722111       -74.0724
   8   2.0000      -2.719164       -73.9922
   9   2.0000      -2.719157       -73.9920
  10   2.0000      -2.717231       -73.9396
  11   2.0000      -2.717219       -73.9393
  12   2.0000      -2.717215       -73.9392
  13   2.0000      -2.716419       -73.9175
  14   2.0000      -2.716416       -73.9174
  15   2.0000      -2.716411       -73.9173
  16   2.0000      -0.811664       -22.0865
  17   2.0000      -0.765624       -20.8337
  18   2.0000      -0.765621       -20.8336
  19   2.0000      -0.765613       -20.8334
  20   2.0000      -0.749613       -20.3980
  21   2.0000      -0.749612       -20.3980
  22   2.0000      -0.728868       -19.8335
  23   2.0000      -0.728852       -19.8331
  24   2.0000      -0.728849       -19.8330
  25   2.0000      -0.696132       -18.9427
  26   2.0000      -0.694531       -18.8991
  27   2.0000      -0.694525       -18.8990
  28   2.0000      -0.694522       -18.8989
  29   2.0000      -0.693871       -18.8812
  30   2.0000      -0.693856       -18.8808
  31   2.0000      -0.693855       -18.8808
  32   2.0000      -0.692177       -18.8351
  33   2.0000      -0.692157       -18.8345
  34   2.0000      -0.665022       -18.0962
  35   2.0000      -0.665020       -18.0961
  36   2.0000      -0.665010       -18.0958
  37   0.0000      -0.479151       -13.0384
  38   0.0000      -0.479149       -13.0383
  39   0.0000      -0.479146       -13.0382
  40   0.0000      -0.335584        -9.1317
  41   0.0000      -0.331201        -9.0124

MULLIKEN ATOMIC CHARGES
-----------------------
   0 Au:    0.499871
   1 Au:    0.499983
   2 Au:    0.499980
   3 Au:    0.500166
Sum of atomic charges:    2.0000000

LOEWDIN ATOMIC CHARGES
----------------------
   0 Au:    0.499999
   1 Au:    0.500010
   2 Au:    0.500010
   3 Au:    0.499980

  Mayer bond orders larger than 0.100000
B(  0-Au,  1-Au) :   0.4508 B(  0-Au,  2-Au) :   0.4508 B(  0-Au,  3-Au) :   0.4507
B(  1-Au,  2-Au) :   0.4506 B(  1-Au,  3-Au) :   0.4507 B(  2-Au,  3-Au) :   0.4507

Dispersion correction           -0.000026123
FINAL SINGLE POINT ENERGY      -542.446296332951

DIPOLE MOMENT
-------------
                                X             Y             Z
Electronic contribution:      0.00000       0.00008       0.00001
Nuclear contribution   :      0.00000       0.00000       0.00000
                        -----------------------------------------
Total Dipole Moment    :      0.00000       0.00008       0.00001
                        -----------------------------------------
Magnitude (a.u.)       :      0.00008
Magnitude (Debye)      :      0.00021

Rotational constants in cm-1:     0.011655     0.011655     0.011654
Rotational constants in MHz :   349.408482   349.408217   349.388110

                             ****ORCA TERMINATED NORMALLY****
TOTAL RUN TIME: 0 days 0 hours 0 minutes 14 seconds 292 msec
