                         Program Version 4.2.0 -  RELEASE  -
|  1> #
|  2> # Au04C2_H_E M06-D3BJ/Def2-TZVPPD
|  3> #
|  4> ! m06 d3zero def2-tzvppd def2/jk grid4 nofinalgrid
|  5>
|  6> *xyz 2 2
|  7> Au       0.000000    1.337591    1.056475
|  8> Au      -0.000000   -1.337591    1.056475
|  9> Au      -1.306954    0.000000   -1.070288
| 10> Au       1.306954   -0.000000   -1.070288
| 11> H       -0.000000    0.000000    2.182427
| 12> *
| 13>
| 14> %maxcore 5000
| 15>
| 16> %pal
| 17> nprocs = 24
| 18> end
| 19>
| 20>
| 21>                          ****END OF INPUT****

CARTESIAN COORDINATES (ANGSTROEM)
---------------------------------
  Au     0.000000    1.337591    1.056475
  Au    -0.000000   -1.337591    1.056475
  Au    -1.306954    0.000000   -1.070288
  Au     1.306954   -0.000000   -1.070288
  H     -0.000000    0.000000    2.182427

 Total Charge           Charge          ....    2
 Multiplicity           Mult            ....    2
 Number of Electrons    NEL             ....   75
 Basis Dimension        Dim             ....  253

ORBITAL ENERGIES
----------------
                 SPIN UP ORBITALS
  NO   OCC          E(Eh)            E(eV)
   0   1.0000      -4.559208      -124.0624
   1   1.0000      -4.558956      -124.0555
   2   1.0000      -4.527948      -123.2117
   3   1.0000      -4.527609      -123.2025
   4   1.0000      -2.751717       -74.8780
   5   1.0000      -2.746820       -74.7448
   6   1.0000      -2.745217       -74.7012
   7   1.0000      -2.743475       -74.6537
   8   1.0000      -2.739680       -74.5505
   9   1.0000      -2.739151       -74.5361
  10   1.0000      -2.719047       -73.9890
  11   1.0000      -2.715174       -73.8836
  12   1.0000      -2.713466       -73.8372
  13   1.0000      -2.711641       -73.7875
  14   1.0000      -2.711109       -73.7730
  15   1.0000      -2.709499       -73.7292
  16   1.0000      -0.866017       -23.5655
  17   1.0000      -0.811950       -22.0943
  18   1.0000      -0.771566       -20.9954
  19   1.0000      -0.771351       -20.9895
  20   1.0000      -0.763526       -20.7766
  21   1.0000      -0.751507       -20.4495
  22   1.0000      -0.746632       -20.3169
  23   1.0000      -0.745403       -20.2835
  24   1.0000      -0.731762       -19.9123
  25   1.0000      -0.722215       -19.6525
  26   1.0000      -0.718279       -19.5454
  27   1.0000      -0.713551       -19.4167
  28   1.0000      -0.709136       -19.2966
  29   1.0000      -0.707135       -19.2421
  30   1.0000      -0.694921       -18.9098
  31   1.0000      -0.694258       -18.8917
  32   1.0000      -0.685351       -18.6493
  33   1.0000      -0.684687       -18.6313
  34   1.0000      -0.683158       -18.5897
  35   1.0000      -0.676012       -18.3952
  36   1.0000      -0.665216       -18.1014
  37   1.0000      -0.595968       -16.2171
  38   0.0000      -0.491878       -13.3847
  39   0.0000      -0.475339       -12.9346
  40   0.0000      -0.414350       -11.2750
  41   0.0000      -0.346629        -9.4323
  42   0.0000      -0.345309        -9.3963

                 SPIN DOWN ORBITALS
  NO   OCC          E(Eh)            E(eV)
   0   1.0000      -4.555277      -123.9554
   1   1.0000      -4.555046      -123.9491
   2   1.0000      -4.526266      -123.1660
   3   1.0000      -4.525921      -123.1566
   4   1.0000      -2.747178       -74.7545
   5   1.0000      -2.742670       -74.6318
   6   1.0000      -2.739716       -74.5515
   7   1.0000      -2.737845       -74.5006
   8   1.0000      -2.736329       -74.4593
   9   1.0000      -2.735835       -74.4459
  10   1.0000      -2.717830       -73.9559
  11   1.0000      -2.711253       -73.7770
  12   1.0000      -2.710265       -73.7501
  13   1.0000      -2.709844       -73.7386
  14   1.0000      -2.709754       -73.7361
  15   1.0000      -2.708653       -73.7062
  16   1.0000      -0.848209       -23.0809
  17   1.0000      -0.805433       -21.9169
  18   1.0000      -0.767708       -20.8904
  19   1.0000      -0.767524       -20.8854
  20   1.0000      -0.759854       -20.6767
  21   1.0000      -0.748081       -20.3563
  22   1.0000      -0.743498       -20.2316
  23   1.0000      -0.741897       -20.1880
  24   1.0000      -0.725458       -19.7407
  25   1.0000      -0.717047       -19.5119
  26   1.0000      -0.712662       -19.3925
  27   1.0000      -0.710723       -19.3398
  28   1.0000      -0.706422       -19.2227
  29   1.0000      -0.702588       -19.1184
  30   1.0000      -0.691584       -18.8189
  31   1.0000      -0.691330       -18.8121
  32   1.0000      -0.681997       -18.5581
  33   1.0000      -0.681949       -18.5568
  34   1.0000      -0.677858       -18.4455
  35   1.0000      -0.672954       -18.3120
  36   1.0000      -0.660920       -17.9845
  37   0.0000      -0.528943       -14.3933
  38   0.0000      -0.487983       -13.2787
  39   0.0000      -0.471491       -12.8299
  40   0.0000      -0.402005       -10.9391
  41   0.0000      -0.340271        -9.2592

MULLIKEN ATOMIC CHARGES AND SPIN POPULATIONS
--------------------------------------------
   0 Au:    0.480129    0.205794
   1 Au:    0.480137    0.205793
   2 Au:    0.460400    0.192742
   3 Au:    0.460409    0.192738
   4 H :    0.118925    0.202932
Sum of atomic charges         :    2.0000000

LOEWDIN ATOMIC CHARGES AND SPIN POPULATIONS
-------------------------------------------
   0 Au:    0.577139    0.256147
   1 Au:    0.577139    0.256147
   2 Au:    0.481559    0.169328
   3 Au:    0.481560    0.169328
   4 H :   -0.117396    0.149050

  Mayer bond orders larger than 0.100000
B(  0-Au,  1-Au) :   0.5332 B(  0-Au,  2-Au) :   0.3797 B(  0-Au,  3-Au) :   0.3797
B(  0-Au,  4-H ) :   0.4629 B(  1-Au,  2-Au) :   0.3797 B(  1-Au,  3-Au) :   0.3797
B(  1-Au,  4-H ) :   0.4629 B(  2-Au,  3-Au) :   0.5949

Dispersion correction           -0.000105964
FINAL SINGLE POINT ENERGY      -542.992858978348

DIPOLE MOMENT
-------------
                                X             Y             Z
Electronic contribution:     -0.00000      -0.00000      -3.45048
Nuclear contribution   :      0.00000       0.00000       3.73018
                        -----------------------------------------
Total Dipole Moment    :     -0.00000      -0.00000       0.27971
                        -----------------------------------------
Magnitude (a.u.)       :      0.27971
Magnitude (Debye)      :      0.71096

Rotational constants in cm-1:     0.012236     0.010747     0.010533
Rotational constants in MHz :   366.830155   322.181581   315.756842

                             ****ORCA TERMINATED NORMALLY****
TOTAL RUN TIME: 0 days 0 hours 0 minutes 19 seconds 526 msec
