                         Program Version 4.2.0 -  RELEASE  -
|  1> #
|  2> # Cu01N0_F M06-D3BJ/Def2-TZVPPD
|  3> #
|  4> ! m06 d3zero def2-tzvppd def2/jk grid4 nofinalgrid
|  5>
|  6> *xyz 0 1
|  7> Cu       0.000000    0.000000    0.412716
|  8> F        0.000000    0.000000   -1.329863
|  9> *
| 10>
| 11> %maxcore 5000
| 12>
| 13> %pal
| 14> nprocs = 24
| 15> end
| 16>
| 17>
| 18>                          ****END OF INPUT****

CARTESIAN COORDINATES (ANGSTROEM)
---------------------------------
  Cu     0.000000    0.000000    0.412716
  F      0.000000    0.000000   -1.329863

 Total Charge           Charge          ....    0
 Multiplicity           Mult            ....    1
 Number of Electrons    NEL             ....   38
 Basis Dimension        Dim             ....  107

ORBITAL ENERGIES
----------------

  NO   OCC          E(Eh)            E(eV)
   0   2.0000    -323.307624     -8797.6477
   1   2.0000     -39.085615     -1063.5736
   2   2.0000     -34.198242      -930.5815
   3   2.0000     -34.197992      -930.5747
   4   2.0000     -34.197992      -930.5747
   5   2.0000     -24.675001      -671.4409
   6   2.0000      -4.433059      -120.6297
   7   2.0000      -2.888975       -78.6130
   8   2.0000      -2.885792       -78.5264
   9   2.0000      -2.885792       -78.5264
  10   2.0000      -1.098308       -29.8865
  11   2.0000      -0.412354       -11.2207
  12   2.0000      -0.377817       -10.2809
  13   2.0000      -0.377817       -10.2809
  14   2.0000      -0.333476        -9.0743
  15   2.0000      -0.333475        -9.0743
  16   2.0000      -0.301508        -8.2044
  17   2.0000      -0.301508        -8.2044
  18   2.0000      -0.294198        -8.0055
  19   0.0000      -0.118454        -3.2233
  20   0.0000      -0.027384        -0.7452
  21   0.0000      -0.027384        -0.7452
  22   0.0000      -0.001944        -0.0529
  23   0.0000       0.027475         0.7476

MULLIKEN ATOMIC CHARGES
-----------------------
   0 Cu:    0.631830
   1 F :   -0.631830
Sum of atomic charges:   -0.0000000

LOEWDIN ATOMIC CHARGES
----------------------
   0 Cu:    0.555688
   1 F :   -0.555688

  Mayer bond orders larger than 0.100000
B(  0-Cu,  1-F ) :   0.7196

Dispersion correction           -0.000000103
FINAL SINGLE POINT ENERGY     -1740.336843427111

DIPOLE MOMENT
-------------
                                X             Y             Z
Electronic contribution:     -0.00000       0.00000       2.81346
Nuclear contribution   :      0.00000       0.00000      -0.83805
                        -----------------------------------------
Total Dipole Moment    :     -0.00000       0.00000       1.97541
                        -----------------------------------------
Magnitude (a.u.)       :      1.97541
Magnitude (Debye)      :      5.02109

Rotational constants in cm-1:     0.000000     0.379573     0.379573
Rotational constants in MHz :     0.000000 11379.305818 11379.305818

                             ****ORCA TERMINATED NORMALLY****
TOTAL RUN TIME: 0 days 0 hours 0 minutes 4 seconds 433 msec
