                         Program Version 4.2.0 -  RELEASE  -
|  1> #
|  2> # Cu01N0_H M06-D3BJ/Def2-TZVPPD
|  3> #
|  4> ! m06 d3zero def2-tzvppd def2/jk grid4 nofinalgrid
|  5>
|  6> *xyz 0 1
|  7> Cu       0.000000    0.000000    0.048513
|  8> H        0.000000    0.000000   -1.406870
|  9> *
| 10>
| 11> %maxcore 5000
| 12>
| 13> %pal
| 14> nprocs = 24
| 15> end
| 16>
| 17>
| 18>                          ****END OF INPUT****

CARTESIAN COORDINATES (ANGSTROEM)
---------------------------------
  Cu     0.000000    0.000000    0.048513
  H      0.000000    0.000000   -1.406870

 Total Charge           Charge          ....    0
 Multiplicity           Mult            ....    1
 Number of Electrons    NEL             ....   30
 Basis Dimension        Dim             ....   84

ORBITAL ENERGIES
----------------

  NO   OCC          E(Eh)            E(eV)
   0   2.0000    -323.282816     -8796.9727
   1   2.0000     -39.063311     -1062.9667
   2   2.0000     -34.177453      -930.0158
   3   2.0000     -34.174580      -929.9376
   4   2.0000     -34.174580      -929.9376
   5   2.0000      -4.405808      -119.8881
   6   2.0000      -2.863968       -77.9325
   7   2.0000      -2.856215       -77.7216
   8   2.0000      -2.856215       -77.7216
   9   2.0000      -0.353234        -9.6120
  10   2.0000      -0.309067        -8.4102
  11   2.0000      -0.309067        -8.4102
  12   2.0000      -0.302856        -8.2411
  13   2.0000      -0.302856        -8.2411
  14   2.0000      -0.256875        -6.9899
  15   0.0000      -0.075831        -2.0635
  16   0.0000      -0.022697        -0.6176
  17   0.0000      -0.022696        -0.6176
  18   0.0000       0.027915         0.7596
  19   0.0000       0.032928         0.8960

MULLIKEN ATOMIC CHARGES
-----------------------
   0 Cu:   -0.405946
   1 H :    0.405946
Sum of atomic charges:   -0.0000000

LOEWDIN ATOMIC CHARGES
----------------------
   0 Cu:    0.257860
   1 H :   -0.257860

  Mayer bond orders larger than 0.100000
B(  0-Cu,  1-H ) :   0.7589

Dispersion correction           -0.000000121
FINAL SINGLE POINT ENERGY     -1641.053187360348

DIPOLE MOMENT
-------------
                                X             Y             Z
Electronic contribution:     -0.00000       0.00000       2.43515
Nuclear contribution   :      0.00000       0.00000      -1.46200
                        -----------------------------------------
Total Dipole Moment    :     -0.00000       0.00000       0.97315
                        -----------------------------------------
Magnitude (a.u.)       :      0.97315
Magnitude (Debye)      :      2.47355

Rotational constants in cm-1:     0.000000     8.020774     8.020774
Rotational constants in MHz :     0.000000 240456.758928 240456.758928

                             ****ORCA TERMINATED NORMALLY****
TOTAL RUN TIME: 0 days 0 hours 0 minutes 3 seconds 880 msec
