                         Program Version 4.2.0 -  RELEASE  -
|  1> #
|  2> # Cu02N0 M06-D3BJ/Def2-TZVPPD
|  3> #
|  4> ! m06 d3zero def2-tzvppd def2/jk grid4 nofinalgrid
|  5>
|  6> *xyz 0 1
|  7> Cu       0.000000    0.000000    1.107490
|  8> Cu       0.000000    0.000000   -1.107490
|  9> *
| 10>
| 11> %maxcore 5000
| 12>
| 13> %pal
| 14> nprocs = 24
| 15> end
| 16>
| 17>
| 18>                          ****END OF INPUT****

CARTESIAN COORDINATES (ANGSTROEM)
---------------------------------
  Cu     0.000000    0.000000    1.107490
  Cu     0.000000    0.000000   -1.107490

 Total Charge           Charge          ....    0
 Multiplicity           Mult            ....    1
 Number of Electrons    NEL             ....   58
 Basis Dimension        Dim             ....  134

ORBITAL ENERGIES
----------------

  NO   OCC          E(Eh)            E(eV)
   0   2.0000    -323.255896     -8796.2401
   1   2.0000    -323.255888     -8796.2399
   2   2.0000     -39.033634     -1062.1592
   3   2.0000     -39.033605     -1062.1584
   4   2.0000     -34.146675      -929.1783
   5   2.0000     -34.146671      -929.1781
   6   2.0000     -34.145921      -929.1577
   7   2.0000     -34.145921      -929.1577
   8   2.0000     -34.145916      -929.1576
   9   2.0000     -34.145916      -929.1576
  10   2.0000      -4.378808      -119.1534
  11   2.0000      -4.378147      -119.1354
  12   2.0000      -2.837248       -77.2054
  13   2.0000      -2.831696       -77.0544
  14   2.0000      -2.831048       -77.0367
  15   2.0000      -2.831048       -77.0367
  16   2.0000      -2.830571       -77.0238
  17   2.0000      -2.830571       -77.0238
  18   2.0000      -0.314066        -8.5462
  19   2.0000      -0.300839        -8.1862
  20   2.0000      -0.300839        -8.1862
  21   2.0000      -0.283576        -7.7165
  22   2.0000      -0.283560        -7.7161
  23   2.0000      -0.275596        -7.4993
  24   2.0000      -0.275581        -7.4989
  25   2.0000      -0.266006        -7.2384
  26   2.0000      -0.266006        -7.2384
  27   2.0000      -0.262059        -7.1310
  28   2.0000      -0.226197        -6.1551
  29   0.0000      -0.090700        -2.4681
  30   0.0000      -0.030076        -0.8184
  31   0.0000      -0.030076        -0.8184
  32   0.0000      -0.012945        -0.3523
  33   0.0000       0.008749         0.2381

MULLIKEN ATOMIC CHARGES
-----------------------
   0 Cu:    0.000007
   1 Cu:   -0.000007
Sum of atomic charges:   -0.0000000

LOEWDIN ATOMIC CHARGES
----------------------
   0 Cu:    0.000000
   1 Cu:   -0.000000

  Mayer bond orders larger than 0.100000
B(  0-Cu,  1-Cu) :   1.0768

Dispersion correction           -0.000000403
FINAL SINGLE POINT ENERGY     -3280.983464040261

DIPOLE MOMENT
-------------
                                X             Y             Z
Electronic contribution:     -0.00000      -0.00000       0.00000
Nuclear contribution   :      0.00000       0.00000       0.00000
                        -----------------------------------------
Total Dipole Moment    :     -0.00000      -0.00000       0.00000
                        -----------------------------------------
Magnitude (a.u.)       :      0.00000
Magnitude (Debye)      :      0.00000

Rotational constants in cm-1:     0.000000     0.108136     0.108136
Rotational constants in MHz :     0.000000  3241.846344  3241.846344

                             ****ORCA TERMINATED NORMALLY****
TOTAL RUN TIME: 0 days 0 hours 0 minutes 4 seconds 734 msec
