                         Program Version 4.2.0 -  RELEASE  -
|  1> #
|  2> # Cu03C1_D3H M06-D3BJ/Def2-TZVPPD
|  3> #
|  4> ! m06 d3zero def2-tzvppd def2/jk grid4 nofinalgrid
|  5>
|  6> *xyz 1 1
|  7> Cu       0.000000    1.349261   -0.000000
|  8> Cu       1.168494   -0.674630    0.000000
|  9> Cu      -1.168494   -0.674630   -0.000000
| 10> *
| 11>
| 12> %maxcore 5000
| 13>
| 14> %pal
| 15> nprocs = 24
| 16> end
| 17>
| 18>
| 19>                          ****END OF INPUT****

CARTESIAN COORDINATES (ANGSTROEM)
---------------------------------
  Cu     0.000000    1.349261   -0.000000
  Cu     1.168494   -0.674630    0.000000
  Cu    -1.168494   -0.674630   -0.000000

 Total Charge           Charge          ....    1
 Multiplicity           Mult            ....    1
 Number of Electrons    NEL             ....   86
 Basis Dimension        Dim             ....  201

ORBITAL ENERGIES
----------------

  NO   OCC          E(Eh)            E(eV)
   0   2.0000    -323.480173     -8802.3430
   1   2.0000    -323.480154     -8802.3425
   2   2.0000    -323.480147     -8802.3423
   3   2.0000     -39.255965     -1068.2091
   4   2.0000     -39.255950     -1068.2087
   5   2.0000     -39.255923     -1068.2080
   6   2.0000     -34.369358      -935.2378
   7   2.0000     -34.369338      -935.2372
   8   2.0000     -34.369332      -935.2371
   9   2.0000     -34.369007      -935.2282
  10   2.0000     -34.368989      -935.2277
  11   2.0000     -34.368984      -935.2276
  12   2.0000     -34.367882      -935.1976
  13   2.0000     -34.367865      -935.1972
  14   2.0000     -34.367860      -935.1970
  15   2.0000      -4.601948      -125.2254
  16   2.0000      -4.601451      -125.2118
  17   2.0000      -4.601442      -125.2116
  18   2.0000      -3.059696       -83.2586
  19   2.0000      -3.057659       -83.2031
  20   2.0000      -3.057659       -83.2031
  21   2.0000      -3.055423       -83.1423
  22   2.0000      -3.055224       -83.1369
  23   2.0000      -3.055211       -83.1365
  24   2.0000      -3.053483       -83.0895
  25   2.0000      -3.053102       -83.0791
  26   2.0000      -3.053093       -83.0789
  27   2.0000      -0.547838       -14.9074
  28   2.0000      -0.529235       -14.4012
  29   2.0000      -0.529226       -14.4010
  30   2.0000      -0.527892       -14.3647
  31   2.0000      -0.517017       -14.0688
  32   2.0000      -0.512906       -13.9569
  33   2.0000      -0.512885       -13.9563
  34   2.0000      -0.495687       -13.4883
  35   2.0000      -0.495680       -13.4881
  36   2.0000      -0.492376       -13.3982
  37   2.0000      -0.491088       -13.3632
  38   2.0000      -0.491040       -13.3619
  39   2.0000      -0.490207       -13.3392
  40   2.0000      -0.490177       -13.3384
  41   2.0000      -0.475404       -12.9364
  42   2.0000      -0.463333       -12.6079
  43   0.0000      -0.280175        -7.6239
  44   0.0000      -0.280175        -7.6239
  45   0.0000      -0.221435        -6.0256
  46   0.0000      -0.186012        -5.0617
  47   0.0000      -0.169096        -4.6013

MULLIKEN ATOMIC CHARGES
-----------------------
   0 Cu:    0.333399
   1 Cu:    0.333301
   2 Cu:    0.333300
Sum of atomic charges:    1.0000000

LOEWDIN ATOMIC CHARGES
----------------------
   0 Cu:    0.333345
   1 Cu:    0.333327
   2 Cu:    0.333328

  Mayer bond orders larger than 0.100000
B(  0-Cu,  1-Cu) :   0.5442 B(  0-Cu,  2-Cu) :   0.5442 B(  1-Cu,  2-Cu) :   0.5443

Dispersion correction           -0.000001825
FINAL SINGLE POINT ENERGY     -4921.259287055970

DIPOLE MOMENT
-------------
                                X             Y             Z
Electronic contribution:      0.00000       0.00002      -0.00000
Nuclear contribution   :      0.00000       0.00000       0.00000
                        -----------------------------------------
Total Dipole Moment    :      0.00000       0.00002      -0.00000
                        -----------------------------------------
Magnitude (a.u.)       :      0.00002
Magnitude (Debye)      :      0.00005

Rotational constants in cm-1:     0.097140     0.097140     0.048570
Rotational constants in MHz :  2912.185801  2912.185732  1456.092883

                             ****ORCA TERMINATED NORMALLY****
TOTAL RUN TIME: 0 days 0 hours 0 minutes 7 seconds 599 msec
