                         Program Version 4.2.0 -  RELEASE  -
|  1> #
|  2> # Cu03N0_D3H M06-D3BJ/Def2-TZVPPD
|  3> #
|  4> ! m06 d3zero def2-tzvppd def2/jk grid4 nofinalgrid
|  5>
|  6> *xyz 0 2
|  7> Cu       0.000000    1.346828   -0.000000
|  8> Cu       1.166387   -0.673414   -0.000000
|  9> Cu      -1.166387   -0.673414   -0.000000
| 10> *
| 11>
| 12> %maxcore 5000
| 13>
| 14> %pal
| 15> nprocs = 24
| 16> end
| 17>
| 18>
| 19>                          ****END OF INPUT****

CARTESIAN COORDINATES (ANGSTROEM)
---------------------------------
  Cu     0.000000    1.346828   -0.000000
  Cu     1.166387   -0.673414   -0.000000
  Cu    -1.166387   -0.673414   -0.000000

 Total Charge           Charge          ....    0
 Multiplicity           Mult            ....    2
 Number of Electrons    NEL             ....   87
 Basis Dimension        Dim             ....  201

ORBITAL ENERGIES
----------------
                 SPIN UP ORBITALS
  NO   OCC          E(Eh)            E(eV)
   0   1.0000    -323.276844     -8796.8101
   1   1.0000    -323.276838     -8796.8100
   2   1.0000    -323.262344     -8796.4156
   3   1.0000     -39.054847     -1062.7364
   4   1.0000     -39.054826     -1062.7358
   5   1.0000     -39.042546     -1062.4017
   6   1.0000     -34.167876      -929.7552
   7   1.0000     -34.167871      -929.7550
   8   1.0000     -34.167336      -929.7405
   9   1.0000     -34.167328      -929.7403
  10   1.0000     -34.166923      -929.7292
  11   1.0000     -34.166919      -929.7291
  12   1.0000     -34.155724      -929.4245
  13   1.0000     -34.155264      -929.4120
  14   1.0000     -34.153301      -929.3586
  15   1.0000      -4.399756      -119.7235
  16   1.0000      -4.399412      -119.7141
  17   1.0000      -4.385500      -119.3355
  18   1.0000      -2.856880       -77.7397
  19   1.0000      -2.853995       -77.6611
  20   1.0000      -2.853014       -77.6344
  21   1.0000      -2.852172       -77.6115
  22   1.0000      -2.851780       -77.6009
  23   1.0000      -2.851517       -77.5937
  24   1.0000      -2.840277       -77.2879
  25   1.0000      -2.838966       -77.2522
  26   1.0000      -2.835225       -77.1504
  27   1.0000      -0.345590        -9.4040
  28   1.0000      -0.325948        -8.8695
  29   1.0000      -0.322953        -8.7880
  30   1.0000      -0.319394        -8.6911
  31   1.0000      -0.310603        -8.4520
  32   1.0000      -0.308678        -8.3996
  33   1.0000      -0.304041        -8.2734
  34   1.0000      -0.292694        -7.9646
  35   1.0000      -0.289446        -7.8762
  36   1.0000      -0.288972        -7.8633
  37   1.0000      -0.281417        -7.6578
  38   1.0000      -0.279450        -7.6042
  39   1.0000      -0.279287        -7.5998
  40   1.0000      -0.276823        -7.5327
  41   1.0000      -0.269413        -7.3311
  42   1.0000      -0.267011        -7.2657
  43   1.0000      -0.149156        -4.0587
  44   0.0000      -0.110068        -2.9951
  45   0.0000      -0.050509        -1.3744
  46   0.0000      -0.028541        -0.7766
  47   0.0000      -0.010626        -0.2891
  48   0.0000      -0.009134        -0.2486

                 SPIN DOWN ORBITALS
  NO   OCC          E(Eh)            E(eV)
   0   1.0000    -323.276582     -8796.8030
   1   1.0000    -323.276575     -8796.8028
   2   1.0000    -323.261488     -8796.3923
   3   1.0000     -39.054507     -1062.7272
   4   1.0000     -39.054485     -1062.7266
   5   1.0000     -39.041732     -1062.3795
   6   1.0000     -34.167507      -929.7451
   7   1.0000     -34.167501      -929.7450
   8   1.0000     -34.166817      -929.7264
   9   1.0000     -34.166810      -929.7262
  10   1.0000     -34.166757      -929.7247
  11   1.0000     -34.166752      -929.7246
  12   1.0000     -34.154730      -929.3975
  13   1.0000     -34.154680      -929.3961
  14   1.0000     -34.152798      -929.3449
  15   1.0000      -4.398994      -119.7027
  16   1.0000      -4.398644      -119.6932
  17   1.0000      -4.383332      -119.2765
  18   1.0000      -2.856175       -77.7205
  19   1.0000      -2.853180       -77.6390
  20   1.0000      -2.852008       -77.6071
  21   1.0000      -2.851373       -77.5898
  22   1.0000      -2.851268       -77.5869
  23   1.0000      -2.851110       -77.5826
  24   1.0000      -2.838453       -77.2382
  25   1.0000      -2.837365       -77.2086
  26   1.0000      -2.833765       -77.1107
  27   1.0000      -0.341799        -9.3008
  28   1.0000      -0.324741        -8.8366
  29   1.0000      -0.322253        -8.7690
  30   1.0000      -0.316307        -8.6072
  31   1.0000      -0.309001        -8.4083
  32   1.0000      -0.307896        -8.3783
  33   1.0000      -0.303095        -8.2476
  34   1.0000      -0.291557        -7.9337
  35   1.0000      -0.288952        -7.8628
  36   1.0000      -0.288126        -7.8403
  37   1.0000      -0.279774        -7.6130
  38   1.0000      -0.277681        -7.5561
  39   1.0000      -0.275931        -7.5085
  40   1.0000      -0.274920        -7.4810
  41   1.0000      -0.263835        -7.1793
  42   1.0000      -0.262802        -7.1512
  43   0.0000      -0.103784        -2.8241
  44   0.0000      -0.086688        -2.3589
  45   0.0000      -0.044461        -1.2098
  46   0.0000      -0.018040        -0.4909
  47   0.0000       0.008700         0.2367

MULLIKEN ATOMIC CHARGES AND SPIN POPULATIONS
--------------------------------------------
   0 Cu:    0.058620    0.561007
   1 Cu:   -0.029301    0.219492
   2 Cu:   -0.029319    0.219501
Sum of atomic charges         :    0.0000000

LOEWDIN ATOMIC CHARGES AND SPIN POPULATIONS
-------------------------------------------
   0 Cu:   -0.017319    0.399182
   1 Cu:    0.008661    0.300407
   2 Cu:    0.008659    0.300411

  Mayer bond orders larger than 0.100000
B(  0-Cu,  1-Cu) :   0.4412 B(  0-Cu,  2-Cu) :   0.4412 B(  1-Cu,  2-Cu) :   0.8757

Dispersion correction           -0.000001798
FINAL SINGLE POINT ENERGY     -4921.476118413920

DIPOLE MOMENT
-------------
                                X             Y             Z
Electronic contribution:      0.00002      -0.31158       0.00000
Nuclear contribution   :      0.00000       0.00000      -0.00000
                        -----------------------------------------
Total Dipole Moment    :      0.00002      -0.31158       0.00000
                        -----------------------------------------
Magnitude (a.u.)       :      0.31158
Magnitude (Debye)      :      0.79197

Rotational constants in cm-1:     0.097491     0.097491     0.048746
Rotational constants in MHz :  2922.716641  2922.715325  1461.357991

                             ****ORCA TERMINATED NORMALLY****
TOTAL RUN TIME: 0 days 0 hours 0 minutes 9 seconds 276 msec
