                         Program Version 4.2.0 -  RELEASE  -
|  1> #
|  2> # Cu03N0_LIN M06-D3BJ/Def2-TZVPPD
|  3> #
|  4> ! m06 d3zero def2-tzvppd def2/jk grid4 nofinalgrid
|  5>
|  6> *xyz 0 2
|  7> Cu       0.000000    0.000000    0.000000
|  8> Cu       0.000000    0.000000    2.291099
|  9> Cu       0.000000    0.000000   -2.291099
| 10> *
| 11>
| 12> %maxcore 5000
| 13>
| 14> %pal
| 15> nprocs = 24
| 16> end
| 17>
| 18>
| 19>                          ****END OF INPUT****

CARTESIAN COORDINATES (ANGSTROEM)
---------------------------------
  Cu     0.000000    0.000000    0.000000
  Cu     0.000000    0.000000    2.291099
  Cu     0.000000    0.000000   -2.291099

 Total Charge           Charge          ....    0
 Multiplicity           Mult            ....    2
 Number of Electrons    NEL             ....   87
 Basis Dimension        Dim             ....  201

ORBITAL ENERGIES
----------------
                 SPIN UP ORBITALS
  NO   OCC          E(Eh)            E(eV)
   0   1.0000    -323.266078     -8796.5172
   1   1.0000    -323.266074     -8796.5171
   2   1.0000    -323.255640     -8796.2332
   3   1.0000     -39.042613     -1062.4035
   4   1.0000     -39.042598     -1062.4031
   5   1.0000     -39.035126     -1062.1998
   6   1.0000     -34.155896      -929.4292
   7   1.0000     -34.155894      -929.4291
   8   1.0000     -34.154866      -929.4011
   9   1.0000     -34.154866      -929.4011
  10   1.0000     -34.154863      -929.4011
  11   1.0000     -34.154863      -929.4011
  12   1.0000     -34.148493      -929.2277
  13   1.0000     -34.147046      -929.1884
  14   1.0000     -34.147046      -929.1884
  15   1.0000      -4.388030      -119.4044
  16   1.0000      -4.388026      -119.4043
  17   1.0000      -4.378021      -119.1320
  18   1.0000      -2.844312       -77.3977
  19   1.0000      -2.843505       -77.3757
  20   1.0000      -2.840193       -77.2856
  21   1.0000      -2.840193       -77.2856
  22   1.0000      -2.840190       -77.2855
  23   1.0000      -2.840190       -77.2855
  24   1.0000      -2.833917       -77.1148
  25   1.0000      -2.829724       -77.0007
  26   1.0000      -2.829724       -77.0007
  27   1.0000      -0.330155        -8.9840
  28   1.0000      -0.309644        -8.4258
  29   1.0000      -0.309644        -8.4258
  30   1.0000      -0.295373        -8.0375
  31   1.0000      -0.294168        -8.0047
  32   1.0000      -0.294168        -8.0047
  33   1.0000      -0.291581        -7.9343
  34   1.0000      -0.291568        -7.9340
  35   1.0000      -0.289894        -7.8884
  36   1.0000      -0.289881        -7.8881
  37   1.0000      -0.276041        -7.5115
  38   1.0000      -0.276023        -7.5110
  39   1.0000      -0.265004        -7.2111
  40   1.0000      -0.265004        -7.2111
  41   1.0000      -0.263196        -7.1619
  42   1.0000      -0.247431        -6.7329
  43   1.0000      -0.205816        -5.6005
  44   0.0000      -0.075009        -2.0411
  45   0.0000      -0.042365        -1.1528
  46   0.0000      -0.042365        -1.1528
  47   0.0000      -0.028327        -0.7708
  48   0.0000      -0.011575        -0.3150

                 SPIN DOWN ORBITALS
  NO   OCC          E(Eh)            E(eV)
   0   1.0000    -323.265132     -8796.4915
   1   1.0000    -323.265129     -8796.4914
   2   1.0000    -323.255662     -8796.2338
   3   1.0000     -39.042264     -1062.3940
   4   1.0000     -39.042249     -1062.3936
   5   1.0000     -39.035380     -1062.2067
   6   1.0000     -34.155754      -929.4253
   7   1.0000     -34.155752      -929.4253
   8   1.0000     -34.154584      -929.3935
   9   1.0000     -34.154584      -929.3935
  10   1.0000     -34.154582      -929.3934
  11   1.0000     -34.154582      -929.3934
  12   1.0000     -34.148514      -929.2283
  13   1.0000     -34.147236      -929.1935
  14   1.0000     -34.147236      -929.1935
  15   1.0000      -4.387004      -119.3764
  16   1.0000      -4.387003      -119.3764
  17   1.0000      -4.378807      -119.1534
  18   1.0000      -2.844260       -77.3963
  19   1.0000      -2.843341       -77.3712
  20   1.0000      -2.839993       -77.2801
  21   1.0000      -2.839993       -77.2801
  22   1.0000      -2.839984       -77.2799
  23   1.0000      -2.839984       -77.2799
  24   1.0000      -2.834318       -77.1257
  25   1.0000      -2.830447       -77.0204
  26   1.0000      -2.830447       -77.0204
  27   1.0000      -0.329986        -8.9794
  28   1.0000      -0.309127        -8.4118
  29   1.0000      -0.309127        -8.4118
  30   1.0000      -0.294547        -8.0150
  31   1.0000      -0.292949        -7.9716
  32   1.0000      -0.292949        -7.9716
  33   1.0000      -0.290464        -7.9039
  34   1.0000      -0.290451        -7.9036
  35   1.0000      -0.288586        -7.8528
  36   1.0000      -0.288572        -7.8525
  37   1.0000      -0.276347        -7.5198
  38   1.0000      -0.276329        -7.5193
  39   1.0000      -0.264440        -7.1958
  40   1.0000      -0.264440        -7.1958
  41   1.0000      -0.260332        -7.0840
  42   1.0000      -0.233631        -6.3574
  43   0.0000      -0.142497        -3.8775
  44   0.0000      -0.058760        -1.5989
  45   0.0000      -0.033774        -0.9190
  46   0.0000      -0.033774        -0.9190
  47   0.0000      -0.006420        -0.1747

MULLIKEN ATOMIC CHARGES AND SPIN POPULATIONS
--------------------------------------------
   0 Cu:   -0.594092    0.178420
   1 Cu:    0.297044    0.410791
   2 Cu:    0.297048    0.410789
Sum of atomic charges         :    0.0000000

LOEWDIN ATOMIC CHARGES AND SPIN POPULATIONS
-------------------------------------------
   0 Cu:   -0.229692    0.365079
   1 Cu:    0.114846    0.317461
   2 Cu:    0.114846    0.317461

  Mayer bond orders larger than 0.100000
B(  0-Cu,  1-Cu) :   0.6517 B(  0-Cu,  2-Cu) :   0.6517 B(  1-Cu,  2-Cu) :   0.1502

Dispersion correction           -0.000103704
FINAL SINGLE POINT ENERGY     -4921.475742169058

DIPOLE MOMENT
-------------
                                X             Y             Z
Electronic contribution:      0.00000       0.00000      -0.00000
Nuclear contribution   :      0.00000       0.00000       0.00000
                        -----------------------------------------
Total Dipole Moment    :      0.00000       0.00000      -0.00000
                        -----------------------------------------
Magnitude (a.u.)       :      0.00000
Magnitude (Debye)      :      0.00000

Rotational constants in cm-1:     0.000000     0.025268     0.025268
Rotational constants in MHz :     0.000000   757.502973   757.502973

                             ****ORCA TERMINATED NORMALLY****
TOTAL RUN TIME: 0 days 0 hours 0 minutes 9 seconds 674 msec
