                         Program Version 4.2.0 -  RELEASE  -
|  1> #
|  2> # Cu03C1_LIN M06-D3BJ/Def2-TZVPPD
|  3> #
|  4> ! m06 d3zero def2-tzvppd def2/jk grid4 nofinalgrid
|  5>
|  6> *xyz 1 1
|  7> Cu       0.000000    0.000000    0.000000
|  8> Cu       0.000000    0.000000    2.337165
|  9> Cu       0.000000    0.000000   -2.337165
| 10> *
| 11>
| 12> %maxcore 5000
| 13>
| 14> %pal
| 15> nprocs = 24
| 16> end
| 17>
| 18>
| 19>                          ****END OF INPUT****

CARTESIAN COORDINATES (ANGSTROEM)
---------------------------------
  Cu     0.000000    0.000000    0.000000
  Cu     0.000000    0.000000    2.337165
  Cu     0.000000    0.000000   -2.337165

 Total Charge           Charge          ....    1
 Multiplicity           Mult            ....    1
 Number of Electrons    NEL             ....   86
 Basis Dimension        Dim             ....  201

ORBITAL ENERGIES
----------------

  NO   OCC          E(Eh)            E(eV)
   0   2.0000    -323.479619     -8802.3279
   1   2.0000    -323.479616     -8802.3279
   2   2.0000    -323.441263     -8801.2842
   3   2.0000     -39.251203     -1068.0795
   4   2.0000     -39.251190     -1068.0792
   5   2.0000     -39.219896     -1067.2276
   6   2.0000     -34.364953      -935.1179
   7   2.0000     -34.364951      -935.1179
   8   2.0000     -34.364250      -935.0988
   9   2.0000     -34.364250      -935.0988
  10   2.0000     -34.364248      -935.0987
  11   2.0000     -34.364248      -935.0987
  12   2.0000     -34.333671      -934.2667
  13   2.0000     -34.331663      -934.2120
  14   2.0000     -34.331663      -934.2120
  15   2.0000      -4.599675      -125.1635
  16   2.0000      -4.599661      -125.1631
  17   2.0000      -4.563713      -124.1849
  18   2.0000      -3.056287       -83.1658
  19   2.0000      -3.056133       -83.1616
  20   2.0000      -3.053751       -83.0968
  21   2.0000      -3.053751       -83.0968
  22   2.0000      -3.053746       -83.0967
  23   2.0000      -3.053746       -83.0967
  24   2.0000      -3.021482       -82.2187
  25   2.0000      -3.014714       -82.0345
  26   2.0000      -3.014714       -82.0345
  27   2.0000      -0.531655       -14.4671
  28   2.0000      -0.514281       -13.9943
  29   2.0000      -0.514281       -13.9943
  30   2.0000      -0.508295       -13.8314
  31   2.0000      -0.506902       -13.7935
  32   2.0000      -0.506902       -13.7935
  33   2.0000      -0.504140       -13.7183
  34   2.0000      -0.504128       -13.7180
  35   2.0000      -0.503713       -13.7067
  36   2.0000      -0.503701       -13.7064
  37   2.0000      -0.461671       -12.5627
  38   2.0000      -0.461655       -12.5623
  39   2.0000      -0.461023       -12.5451
  40   2.0000      -0.460151       -12.5213
  41   2.0000      -0.460151       -12.5213
  42   2.0000      -0.421623       -11.4729
  43   0.0000      -0.335084        -9.1181
  44   0.0000      -0.232824        -6.3355
  45   0.0000      -0.201017        -5.4699
  46   0.0000      -0.201016        -5.4699
  47   0.0000      -0.171570        -4.6687

MULLIKEN ATOMIC CHARGES
-----------------------
   0 Cu:    0.020955
   1 Cu:    0.489524
   2 Cu:    0.489520
Sum of atomic charges:    1.0000000

LOEWDIN ATOMIC CHARGES
----------------------
   0 Cu:    0.149037
   1 Cu:    0.425481
   2 Cu:    0.425481

  Mayer bond orders larger than 0.100000
B(  0-Cu,  1-Cu) :   0.5535 B(  0-Cu,  2-Cu) :   0.5535 B(  1-Cu,  2-Cu) :   0.3092

Dispersion correction           -0.000113331
FINAL SINGLE POINT ENERGY     -4921.203518089275

DIPOLE MOMENT
-------------
                                X             Y             Z
Electronic contribution:      0.00000       0.00000       0.00000
Nuclear contribution   :      0.00000       0.00000       0.00000
                        -----------------------------------------
Total Dipole Moment    :      0.00000       0.00000       0.00000
                        -----------------------------------------
Magnitude (a.u.)       :      0.00000
Magnitude (Debye)      :      0.00000

Rotational constants in cm-1:     0.000000     0.024281     0.024281
Rotational constants in MHz :     0.000000   727.936180   727.936180

                             ****ORCA TERMINATED NORMALLY****
TOTAL RUN TIME: 0 days 0 hours 0 minutes 9 seconds 117 msec
