                         Program Version 4.2.0 -  RELEASE  -
|  1> #
|  2> # Cu04C2_H_A M06-D3BJ/Def2-TZVPPD
|  3> #
|  4> ! m06 d3zero def2-tzvppd def2/jk grid4 nofinalgrid
|  5>
|  6> *xyz 2 2
|  7> Cu      -0.000000    1.401870   -0.545062
|  8> Cu       1.214055   -0.700935   -0.545062
|  9> Cu      -1.214055   -0.700935   -0.545062
| 10> Cu       0.000000    0.000000    1.530006
| 11> H        0.000000    0.000000    3.050192
| 12> *
| 13>
| 14> %maxcore 5000
| 15>
| 16> %pal
| 17> nprocs = 24
| 18> end
| 19>
| 20>
| 21>                          ****END OF INPUT****

CARTESIAN COORDINATES (ANGSTROEM)
---------------------------------
  Cu    -0.000000    1.401870   -0.545062
  Cu     1.214055   -0.700935   -0.545062
  Cu    -1.214055   -0.700935   -0.545062
  Cu     0.000000    0.000000    1.530006
  H      0.000000    0.000000    3.050192

 Total Charge           Charge          ....    2
 Multiplicity           Mult            ....    2
 Number of Electrons    NEL             ....  115
 Basis Dimension        Dim             ....  285

ORBITAL ENERGIES
----------------
                 SPIN UP ORBITALS
  NO   OCC          E(Eh)            E(eV)
   0   1.0000    -323.715852     -8808.7562
   1   1.0000    -323.686896     -8807.9682
   2   1.0000    -323.686892     -8807.9681
   3   1.0000    -323.686822     -8807.9662
   4   1.0000     -39.499886     -1074.8465
   5   1.0000     -39.461480     -1073.8015
   6   1.0000     -39.461468     -1073.8011
   7   1.0000     -39.461407     -1073.7995
   8   1.0000     -34.618275      -942.0111
   9   1.0000     -34.608640      -941.7490
  10   1.0000     -34.608638      -941.7489
  11   1.0000     -34.574682      -940.8249
  12   1.0000     -34.574678      -940.8248
  13   1.0000     -34.574613      -940.8231
  14   1.0000     -34.574356      -940.8161
  15   1.0000     -34.574351      -940.8159
  16   1.0000     -34.574287      -940.8142
  17   1.0000     -34.574235      -940.8128
  18   1.0000     -34.574227      -940.8126
  19   1.0000     -34.574166      -940.8109
  20   1.0000      -4.842212      -131.7633
  21   1.0000      -4.806981      -130.8046
  22   1.0000      -4.806680      -130.7964
  23   1.0000      -4.806655      -130.7957
  24   1.0000      -3.307348       -89.9975
  25   1.0000      -3.289033       -89.4991
  26   1.0000      -3.289028       -89.4990
  27   1.0000      -3.263719       -88.8103
  28   1.0000      -3.261854       -88.7596
  29   1.0000      -3.261841       -88.7592
  30   1.0000      -3.260673       -88.7274
  31   1.0000      -3.260564       -88.7244
  32   1.0000      -3.260561       -88.7244
  33   1.0000      -3.259865       -88.7054
  34   1.0000      -3.259861       -88.7053
  35   1.0000      -3.259588       -88.6979
  36   1.0000      -0.804827       -21.9005
  37   1.0000      -0.753759       -20.5108
  38   1.0000      -0.753734       -20.5102
  39   1.0000      -0.746129       -20.3032
  40   1.0000      -0.738020       -20.0825
  41   1.0000      -0.738016       -20.0824
  42   1.0000      -0.733189       -19.9511
  43   1.0000      -0.726724       -19.7752
  44   1.0000      -0.726709       -19.7748
  45   1.0000      -0.720581       -19.6080
  46   1.0000      -0.711373       -19.3575
  47   1.0000      -0.711370       -19.3574
  48   1.0000      -0.702450       -19.1146
  49   1.0000      -0.699579       -19.0365
  50   1.0000      -0.699502       -19.0344
  51   1.0000      -0.699482       -19.0339
  52   1.0000      -0.697757       -18.9869
  53   1.0000      -0.697755       -18.9869
  54   1.0000      -0.691981       -18.8298
  55   1.0000      -0.691971       -18.8295
  56   1.0000      -0.681464       -18.5436
  57   1.0000      -0.664758       -18.0890
  58   0.0000      -0.468663       -12.7530
  59   0.0000      -0.468662       -12.7529
  60   0.0000      -0.438243       -11.9252
  61   0.0000      -0.350738        -9.5441
  62   0.0000      -0.343024        -9.3341

                 SPIN DOWN ORBITALS
  NO   OCC          E(Eh)            E(eV)
   0   1.0000    -323.715038     -8808.7340
   1   1.0000    -323.686834     -8807.9666
   2   1.0000    -323.686830     -8807.9664
   3   1.0000    -323.686760     -8807.9645
   4   1.0000     -39.496074     -1074.7428
   5   1.0000     -39.461339     -1073.7976
   6   1.0000     -39.461327     -1073.7973
   7   1.0000     -39.461266     -1073.7956
   8   1.0000     -34.612860      -941.8638
   9   1.0000     -34.605766      -941.6708
  10   1.0000     -34.605765      -941.6707
  11   1.0000     -34.574538      -940.8210
  12   1.0000     -34.574533      -940.8209
  13   1.0000     -34.574469      -940.8191
  14   1.0000     -34.574202      -940.8119
  15   1.0000     -34.574195      -940.8117
  16   1.0000     -34.574140      -940.8102
  17   1.0000     -34.574135      -940.8100
  18   1.0000     -34.574132      -940.8100
  19   1.0000     -34.574071      -940.8083
  20   1.0000      -4.831273      -131.4656
  21   1.0000      -4.806646      -130.7955
  22   1.0000      -4.806342      -130.7872
  23   1.0000      -4.806317      -130.7865
  24   1.0000      -3.288028       -89.4718
  25   1.0000      -3.282031       -89.3086
  26   1.0000      -3.282028       -89.3085
  27   1.0000      -3.263255       -88.7977
  28   1.0000      -3.261510       -88.7502
  29   1.0000      -3.261501       -88.7500
  30   1.0000      -3.260298       -88.7172
  31   1.0000      -3.260292       -88.7171
  32   1.0000      -3.260227       -88.7153
  33   1.0000      -3.259511       -88.6958
  34   1.0000      -3.259491       -88.6953
  35   1.0000      -3.259487       -88.6951
  36   1.0000      -0.775852       -21.1120
  37   1.0000      -0.746684       -20.3183
  38   1.0000      -0.746659       -20.3176
  39   1.0000      -0.739497       -20.1227
  40   1.0000      -0.734184       -19.9782
  41   1.0000      -0.734176       -19.9780
  42   1.0000      -0.725559       -19.7435
  43   1.0000      -0.725547       -19.7431
  44   1.0000      -0.719130       -19.5685
  45   1.0000      -0.718887       -19.5619
  46   1.0000      -0.709609       -19.3094
  47   1.0000      -0.709604       -19.3093
  48   1.0000      -0.699406       -19.0318
  49   1.0000      -0.698986       -19.0204
  50   1.0000      -0.698967       -19.0199
  51   1.0000      -0.697114       -18.9694
  52   1.0000      -0.697110       -18.9693
  53   1.0000      -0.689321       -18.7574
  54   1.0000      -0.689316       -18.7572
  55   1.0000      -0.685411       -18.6510
  56   1.0000      -0.681317       -18.5396
  57   0.0000      -0.541340       -14.7306
  58   0.0000      -0.466782       -12.7018
  59   0.0000      -0.466782       -12.7018
  60   0.0000      -0.423568       -11.5259
  61   0.0000      -0.348971        -9.4960

MULLIKEN ATOMIC CHARGES AND SPIN POPULATIONS
--------------------------------------------
   0 Cu:    0.533053    0.014681
   1 Cu:    0.532555    0.014778
   2 Cu:    0.532581    0.014786
   3 Cu:   -0.374540    0.545899
   4 H :    0.776351    0.409856
Sum of atomic charges         :    2.0000000

LOEWDIN ATOMIC CHARGES AND SPIN POPULATIONS
-------------------------------------------
   0 Cu:    0.492466    0.041908
   1 Cu:    0.492401    0.041907
   2 Cu:    0.492401    0.041908
   3 Cu:    0.389015    0.434358
   4 H :    0.133717    0.439919

  Mayer bond orders larger than 0.100000
B(  0-Cu,  1-Cu) :   0.3612 B(  0-Cu,  2-Cu) :   0.3612 B(  0-Cu,  3-Cu) :   0.2445
B(  1-Cu,  2-Cu) :   0.3613 B(  1-Cu,  3-Cu) :   0.2450 B(  2-Cu,  3-Cu) :   0.2450
B(  3-Cu,  4-H ) :  -0.4398

Dispersion correction           -0.000304409
FINAL SINGLE POINT ENERGY     -6561.879922749636

DIPOLE MOMENT
-------------
                                X             Y             Z
Electronic contribution:      0.00000       0.00027      -3.19818
Nuclear contribution   :      0.00000       0.00000       3.12710
                        -----------------------------------------
Total Dipole Moment    :      0.00000       0.00027      -0.07108
                        -----------------------------------------
Magnitude (a.u.)       :      0.07108
Magnitude (Debye)      :      0.18068

Rotational constants in cm-1:     0.044993     0.041927     0.041927
Rotational constants in MHz :  1348.855174  1256.945404  1256.945373

                             ****ORCA TERMINATED NORMALLY****
TOTAL RUN TIME: 0 days 0 hours 0 minutes 23 seconds 384 msec
