                         Program Version 4.2.0 -  RELEASE  -
|  1> #
|  2> # Cu04C2_NH3_F M06-D3BJ/Def2-TZVPPD
|  3> #
|  4> ! m06 d3zero def2-tzvppd def2/jk grid4 nofinalgrid
|  5>
|  6> *xyz 2 1
|  7> Cu       0.253817    1.375381    0.000000
|  8> Cu       0.253817   -0.687598    1.191098
|  9> Cu       0.253817   -0.687598   -1.191098
| 10> Cu      -1.745352    0.000159    0.000000
| 11> N        2.725949   -0.000959   -0.000000
| 12> H        3.150217   -0.936878   -0.000000
| 13> H        3.150637    0.466806   -0.810419
| 14> H        3.150637    0.466806    0.810419
| 15> *
| 16>
| 17> %maxcore 5000
| 18>
| 19> %pal
| 20> nprocs = 24
| 21> end
| 22>
| 23>
| 24>                          ****END OF INPUT****

CARTESIAN COORDINATES (ANGSTROEM)
---------------------------------
  Cu     0.253817    1.375381    0.000000
  Cu     0.253817   -0.687598    1.191098
  Cu     0.253817   -0.687598   -1.191098
  Cu    -1.745352    0.000159    0.000000
  N      2.725949   -0.000959   -0.000000
  H      3.150217   -0.936878   -0.000000
  H      3.150637    0.466806   -0.810419
  H      3.150637    0.466806    0.810419

 Total Charge           Charge          ....    2
 Multiplicity           Mult            ....    1
 Number of Electrons    NEL             ....  124
 Basis Dimension        Dim             ....  356

ORBITAL ENERGIES
----------------

  NO   OCC          E(Eh)            E(eV)
   0   2.0000    -323.650632     -8806.9814
   1   2.0000    -323.650618     -8806.9811
   2   2.0000    -323.650614     -8806.9809
   3   2.0000    -323.644094     -8806.8035
   4   2.0000     -39.425530     -1072.8232
   5   2.0000     -39.425518     -1072.8229
   6   2.0000     -39.425503     -1072.8225
   7   2.0000     -39.419720     -1072.6651
   8   2.0000     -34.539039      -939.8550
   9   2.0000     -34.539024      -939.8546
  10   2.0000     -34.539018      -939.8545
  11   2.0000     -34.538471      -939.8396
  12   2.0000     -34.538457      -939.8392
  13   2.0000     -34.538453      -939.8391
  14   2.0000     -34.537761      -939.8203
  15   2.0000     -34.537748      -939.8199
  16   2.0000     -34.537744      -939.8198
  17   2.0000     -34.532836      -939.6862
  18   2.0000     -34.532389      -939.6741
  19   2.0000     -34.532388      -939.6741
  20   2.0000     -14.720676      -400.5699
  21   2.0000      -4.771524      -129.8398
  22   2.0000      -4.771113      -129.8286
  23   2.0000      -4.771103      -129.8283
  24   2.0000      -4.764487      -129.6483
  25   2.0000      -3.228730       -87.8582
  26   2.0000      -3.227095       -87.8137
  27   2.0000      -3.227091       -87.8136
  28   2.0000      -3.225278       -87.7643
  29   2.0000      -3.225246       -87.7634
  30   2.0000      -3.225231       -87.7630
  31   2.0000      -3.224195       -87.7348
  32   2.0000      -3.223413       -87.7135
  33   2.0000      -3.223401       -87.7132
  34   2.0000      -3.219471       -87.6063
  35   2.0000      -3.217668       -87.5572
  36   2.0000      -3.217667       -87.5572
  37   2.0000      -1.210884       -32.9498
  38   2.0000      -0.806771       -21.9534
  39   2.0000      -0.806758       -21.9530
  40   2.0000      -0.735292       -20.0083
  41   2.0000      -0.714903       -19.4535
  42   2.0000      -0.701944       -19.1009
  43   2.0000      -0.701936       -19.1007
  44   2.0000      -0.692412       -18.8415
  45   2.0000      -0.692411       -18.8415
  46   2.0000      -0.691649       -18.8207
  47   2.0000      -0.681489       -18.5442
  48   2.0000      -0.681485       -18.5441
  49   2.0000      -0.681451       -18.5432
  50   2.0000      -0.663527       -18.0555
  51   2.0000      -0.663322       -18.0499
  52   2.0000      -0.663311       -18.0496
  53   2.0000      -0.661935       -18.0122
  54   2.0000      -0.661918       -18.0117
  55   2.0000      -0.658989       -17.9320
  56   2.0000      -0.658987       -17.9320
  57   2.0000      -0.656136       -17.8544
  58   2.0000      -0.645394       -17.5621
  59   2.0000      -0.643423       -17.5084
  60   2.0000      -0.643399       -17.5078
  61   2.0000      -0.614748       -16.7281
  62   0.0000      -0.438880       -11.9425
  63   0.0000      -0.438876       -11.9424
  64   0.0000      -0.416676       -11.3383
  65   0.0000      -0.337295        -9.1783
  66   0.0000      -0.317474        -8.6389

MULLIKEN ATOMIC CHARGES
-----------------------
   0 Cu:    0.460836
   1 Cu:    0.460590
   2 Cu:    0.460590
   3 Cu:    0.226705
   4 N :   -0.217055
   5 H :    0.203217
   6 H :    0.202557
   7 H :    0.202561
Sum of atomic charges:    2.0000000

LOEWDIN ATOMIC CHARGES
----------------------
   0 Cu:    0.411737
   1 Cu:    0.411624
   2 Cu:    0.411624
   3 Cu:    0.481487
   4 N :    0.500366
   5 H :   -0.072287
   6 H :   -0.072276
   7 H :   -0.072276

  Mayer bond orders larger than 0.100000
B(  0-Cu,  1-Cu) :   0.3918 B(  0-Cu,  2-Cu) :   0.3918 B(  0-Cu,  3-Cu) :   0.4123
B(  1-Cu,  2-Cu) :   0.3919 B(  1-Cu,  3-Cu) :   0.4122 B(  2-Cu,  3-Cu) :   0.4122
B(  4-N ,  5-H ) :   1.0124 B(  4-N ,  6-H ) :   1.0133 B(  4-N ,  7-H ) :   1.0133

Dispersion correction           -0.000808041
FINAL SINGLE POINT ENERGY     -6617.951406218594

DIPOLE MOMENT
-------------
                                X             Y             Z
Electronic contribution:    -11.45250       0.00440      -0.00000
Nuclear contribution   :     13.00779      -0.00451       0.00000
                        -----------------------------------------
Total Dipole Moment    :      1.55529      -0.00012      -0.00000
                        -----------------------------------------
Magnitude (a.u.)       :      1.55529
Magnitude (Debye)      :      3.95324

Rotational constants in cm-1:     0.046405     0.032369     0.032369
Rotational constants in MHz :  1391.178817   970.405392   970.384771

                             ****ORCA TERMINATED NORMALLY****
TOTAL RUN TIME: 0 days 0 hours 0 minutes 34 seconds 78 msec
