                         Program Version 4.2.0 -  RELEASE  -
|  1> #
|  2> # Cu04C2_NH3_A M06-D3BJ/Def2-TZVPPD
|  3> #
|  4> ! m06 d3zero def2-tzvppd def2/jk grid4 nofinalgrid
|  5>
|  6> *xyz 2 1
|  7> Cu       0.543145   -0.896300    1.192832
|  8> Cu       0.543145   -0.896300   -1.192832
|  9> Cu      -1.492086   -0.543328    0.000000
| 10> Cu       0.211399    1.215580   -0.000000
| 11> N        0.543145    3.129666   -0.000000
| 12> H        0.146420    3.607894   -0.818022
| 13> H        0.146420    3.607894    0.818022
| 14> H        1.542647    3.366638   -0.000000
| 15> *
| 16>
| 17> %maxcore 5000
| 18>
| 19> %pal
| 20> nprocs = 24
| 21> end
| 22>
| 23>
| 24>                          ****END OF INPUT****

CARTESIAN COORDINATES (ANGSTROEM)
---------------------------------
  Cu     0.543145   -0.896300    1.192832
  Cu     0.543145   -0.896300   -1.192832
  Cu    -1.492086   -0.543328    0.000000
  Cu     0.211399    1.215580   -0.000000
  N      0.543145    3.129666   -0.000000
  H      0.146420    3.607894   -0.818022
  H      0.146420    3.607894    0.818022
  H      1.542647    3.366638   -0.000000

 Total Charge           Charge          ....    2
 Multiplicity           Mult            ....    1
 Number of Electrons    NEL             ....  124
 Basis Dimension        Dim             ....  356

ORBITAL ENERGIES
----------------

  NO   OCC          E(Eh)            E(eV)
   0   2.0000    -323.648961     -8806.9360
   1   2.0000    -323.648959     -8806.9359
   2   2.0000    -323.648953     -8806.9357
   3   2.0000    -323.638321     -8806.6464
   4   2.0000     -39.424169     -1072.7862
   5   2.0000     -39.424166     -1072.7861
   6   2.0000     -39.424146     -1072.7856
   7   2.0000     -39.420855     -1072.6960
   8   2.0000     -34.537142      -939.8034
   9   2.0000     -34.537137      -939.8033
  10   2.0000     -34.537136      -939.8032
  11   2.0000     -34.537131      -939.8031
  12   2.0000     -34.537129      -939.8031
  13   2.0000     -34.537127      -939.8030
  14   2.0000     -34.536817      -939.7946
  15   2.0000     -34.536815      -939.7945
  16   2.0000     -34.536808      -939.7943
  17   2.0000     -34.533440      -939.7027
  18   2.0000     -34.532579      -939.6792
  19   2.0000     -34.532577      -939.6792
  20   2.0000     -14.737145      -401.0181
  21   2.0000      -4.769652      -129.7888
  22   2.0000      -4.769254      -129.7780
  23   2.0000      -4.769250      -129.7779
  24   2.0000      -4.762220      -129.5866
  25   2.0000      -3.226627       -87.8010
  26   2.0000      -3.224556       -87.7446
  27   2.0000      -3.224551       -87.7445
  28   2.0000      -3.223016       -87.7027
  29   2.0000      -3.223008       -87.7025
  30   2.0000      -3.223004       -87.7024
  31   2.0000      -3.222449       -87.6873
  32   2.0000      -3.222230       -87.6813
  33   2.0000      -3.222226       -87.6812
  34   2.0000      -3.215972       -87.5110
  35   2.0000      -3.214493       -87.4708
  36   2.0000      -3.214484       -87.4706
  37   2.0000      -1.225999       -33.3611
  38   2.0000      -0.821961       -22.3667
  39   2.0000      -0.821897       -22.3650
  40   2.0000      -0.753017       -20.4906
  41   2.0000      -0.713289       -19.4096
  42   2.0000      -0.697611       -18.9830
  43   2.0000      -0.697602       -18.9827
  44   2.0000      -0.697486       -18.9796
  45   2.0000      -0.688728       -18.7413
  46   2.0000      -0.688715       -18.7409
  47   2.0000      -0.683497       -18.5989
  48   2.0000      -0.678439       -18.4613
  49   2.0000      -0.678420       -18.4607
  50   2.0000      -0.661402       -17.9977
  51   2.0000      -0.660682       -17.9781
  52   2.0000      -0.660674       -17.9778
  53   2.0000      -0.659285       -17.9401
  54   2.0000      -0.659273       -17.9397
  55   2.0000      -0.654858       -17.8196
  56   2.0000      -0.654847       -17.8193
  57   2.0000      -0.653199       -17.7744
  58   2.0000      -0.643105       -17.4998
  59   2.0000      -0.638964       -17.3871
  60   2.0000      -0.638962       -17.3870
  61   2.0000      -0.624927       -17.0051
  62   0.0000      -0.435099       -11.8396
  63   0.0000      -0.435073       -11.8389
  64   0.0000      -0.407131       -11.0786
  65   0.0000      -0.325793        -8.8653
  66   0.0000      -0.309588        -8.4243

MULLIKEN ATOMIC CHARGES
-----------------------
   0 Cu:    0.474011
   1 Cu:    0.473976
   2 Cu:    0.473587
   3 Cu:    0.036949
   4 N :   -0.002447
   5 H :    0.181318
   6 H :    0.181313
   7 H :    0.181293
Sum of atomic charges:    2.0000000

LOEWDIN ATOMIC CHARGES
----------------------
   0 Cu:    0.460748
   1 Cu:    0.460748
   2 Cu:    0.460763
   3 Cu:    0.268239
   4 N :    0.482653
   5 H :   -0.044387
   6 H :   -0.044387
   7 H :   -0.044377

  Mayer bond orders larger than 0.100000
B(  0-Cu,  1-Cu) :   0.3833 B(  0-Cu,  2-Cu) :   0.3836 B(  0-Cu,  3-Cu) :   0.1970
B(  1-Cu,  2-Cu) :   0.3836 B(  1-Cu,  3-Cu) :   0.1970 B(  2-Cu,  3-Cu) :   0.1976
B(  3-Cu,  4-N ) :   0.2409 B(  4-N ,  5-H ) :   1.0103 B(  4-N ,  6-H ) :   1.0103
B(  4-N ,  7-H ) :   1.0097

Dispersion correction           -0.000694323
FINAL SINGLE POINT ENERGY     -6618.003168911338

DIPOLE MOMENT
-------------
                                X             Y             Z
Electronic contribution:     -2.27562     -13.11562       0.00000
Nuclear contribution   :      2.54223      14.65497       0.00000
                        -----------------------------------------
Total Dipole Moment    :      0.26660       1.53935       0.00000
                        -----------------------------------------
Magnitude (a.u.)       :      1.56227
Magnitude (Debye)      :      3.97097

Rotational constants in cm-1:     0.046273     0.029218     0.029214
Rotational constants in MHz :  1387.222495   875.924520   875.809559

                             ****ORCA TERMINATED NORMALLY****
TOTAL RUN TIME: 0 days 0 hours 0 minutes 28 seconds 301 msec
