                         Program Version 4.2.0 -  RELEASE  -
|  1> #
|  2> # Cu04C2 M06-D3BJ/Def2-TZVPPD
|  3> #
|  4> ! m06 d3zero def2-tzvppd def2/jk grid4 nofinalgrid
|  5>
|  6> *xyz 2 1
|  7> Cu      -0.000001   -0.000007    1.488630
|  8> Cu       0.000001   -1.403449   -0.496203
|  9> Cu       1.215485    0.701727   -0.496214
| 10> Cu      -1.215485    0.701729   -0.496213
| 11> *
| 12>
| 13> %maxcore 5000
| 14>
| 15> %pal
| 16> nprocs = 24
| 17> end
| 18>
| 19>
| 20>                          ****END OF INPUT****

CARTESIAN COORDINATES (ANGSTROEM)
---------------------------------
  Cu    -0.000001   -0.000007    1.488630
  Cu     0.000001   -1.403449   -0.496203
  Cu     1.215485    0.701727   -0.496214
  Cu    -1.215485    0.701729   -0.496213

 Total Charge           Charge          ....    2
 Multiplicity           Mult            ....    1
 Number of Electrons    NEL             ....  114
 Basis Dimension        Dim             ....  268

ORBITAL ENERGIES
----------------

  NO   OCC          E(Eh)            E(eV)
   0   2.0000    -323.684946     -8807.9152
   1   2.0000    -323.684942     -8807.9151
   2   2.0000    -323.684914     -8807.9143
   3   2.0000    -323.684906     -8807.9141
   4   2.0000     -39.459494     -1073.7474
   5   2.0000     -39.459485     -1073.7472
   6   2.0000     -39.459464     -1073.7466
   7   2.0000     -39.459440     -1073.7459
   8   2.0000     -34.572585      -940.7679
   9   2.0000     -34.572581      -940.7677
  10   2.0000     -34.572556      -940.7671
  11   2.0000     -34.572547      -940.7668
  12   2.0000     -34.572372      -940.7621
  13   2.0000     -34.572370      -940.7620
  14   2.0000     -34.572367      -940.7619
  15   2.0000     -34.572362      -940.7618
  16   2.0000     -34.572340      -940.7612
  17   2.0000     -34.572338      -940.7612
  18   2.0000     -34.572333      -940.7610
  19   2.0000     -34.572332      -940.7610
  20   2.0000      -4.805192      -130.7559
  21   2.0000      -4.804790      -130.7450
  22   2.0000      -4.804782      -130.7448
  23   2.0000      -4.804772      -130.7445
  24   2.0000      -3.262398       -88.7744
  25   2.0000      -3.260169       -88.7137
  26   2.0000      -3.260166       -88.7136
  27   2.0000      -3.260163       -88.7135
  28   2.0000      -3.259084       -88.6842
  29   2.0000      -3.259080       -88.6841
  30   2.0000      -3.258168       -88.6593
  31   2.0000      -3.258167       -88.6592
  32   2.0000      -3.258164       -88.6591
  33   2.0000      -3.257927       -88.6527
  34   2.0000      -3.257919       -88.6525
  35   2.0000      -3.257916       -88.6524
  36   2.0000      -0.765616       -20.8335
  37   2.0000      -0.735858       -20.0237
  38   2.0000      -0.735856       -20.0237
  39   2.0000      -0.735838       -20.0232
  40   2.0000      -0.726590       -19.7715
  41   2.0000      -0.726582       -19.7713
  42   2.0000      -0.718091       -19.5403
  43   2.0000      -0.718083       -19.5400
  44   2.0000      -0.718072       -19.5397
  45   2.0000      -0.697994       -18.9934
  46   2.0000      -0.697981       -18.9930
  47   2.0000      -0.697976       -18.9929
  48   2.0000      -0.696444       -18.9512
  49   2.0000      -0.696441       -18.9511
  50   2.0000      -0.696143       -18.9430
  51   2.0000      -0.696135       -18.9428
  52   2.0000      -0.696128       -18.9426
  53   2.0000      -0.688121       -18.7247
  54   2.0000      -0.680016       -18.5042
  55   2.0000      -0.680014       -18.5041
  56   2.0000      -0.679999       -18.5037
  57   0.0000      -0.465936       -12.6788
  58   0.0000      -0.465934       -12.6787
  59   0.0000      -0.465930       -12.6786
  60   0.0000      -0.355201        -9.6655
  61   0.0000      -0.336420        -9.1544

MULLIKEN ATOMIC CHARGES
-----------------------
   0 Cu:    0.499980
   1 Cu:    0.500110
   2 Cu:    0.499954
   3 Cu:    0.499955
Sum of atomic charges:    2.0000000

LOEWDIN ATOMIC CHARGES
----------------------
   0 Cu:    0.500003
   1 Cu:    0.500022
   2 Cu:    0.499987
   3 Cu:    0.499987

  Mayer bond orders larger than 0.100000
B(  0-Cu,  1-Cu) :   0.3696 B(  0-Cu,  2-Cu) :   0.3696 B(  0-Cu,  3-Cu) :   0.3696
B(  1-Cu,  2-Cu) :   0.3696 B(  1-Cu,  3-Cu) :   0.3696 B(  2-Cu,  3-Cu) :   0.3696

Dispersion correction           -0.000005001
FINAL SINGLE POINT ENERGY     -6561.352851570806

DIPOLE MOMENT
-------------
                                X             Y             Z
Electronic contribution:      0.00000      -0.00015       0.00005
Nuclear contribution   :      0.00000       0.00000      -0.00000
                        -----------------------------------------
Total Dipole Moment    :      0.00000      -0.00015       0.00005
                        -----------------------------------------
Magnitude (a.u.)       :      0.00015
Magnitude (Debye)      :      0.00039

Rotational constants in cm-1:     0.044890     0.044889     0.044888
Rotational constants in MHz :  1345.776498  1345.751239  1345.708462

                             ****ORCA TERMINATED NORMALLY****
TOTAL RUN TIME: 0 days 0 hours 0 minutes 13 seconds 813 msec
