                         Program Version 4.2.0 -  RELEASE  -
|  1> #
|  2> # Cu04N0 M06-D3BJ/Def2-TZVPPD
|  3> #
|  4> ! m06 d3zero def2-tzvppd def2/jk grid4 nofinalgrid
|  5>
|  6> *xyz 0 1
|  7> Cu      -0.387876   -0.085256    2.052405
|  8> Cu       1.110029    0.096858    0.214111
|  9> Cu       0.386859    0.085217   -2.052443
| 10> Cu      -1.109011   -0.096818   -0.214073
| 11> *
| 12>
| 13> %maxcore 5000
| 14>
| 15> %pal
| 16> nprocs = 24
| 17> end
| 18>
| 19>
| 20>                          ****END OF INPUT****

CARTESIAN COORDINATES (ANGSTROEM)
---------------------------------
  Cu    -0.387876   -0.085256    2.052405
  Cu     1.110029    0.096858    0.214111
  Cu     0.386859    0.085217   -2.052443
  Cu    -1.109011   -0.096818   -0.214073

 Total Charge           Charge          ....    0
 Multiplicity           Mult            ....    1
 Number of Electrons    NEL             ....  116
 Basis Dimension        Dim             ....  268

ORBITAL ENERGIES
----------------

  NO   OCC          E(Eh)            E(eV)
   0   2.0000    -323.282094     -8796.9530
   1   2.0000    -323.282072     -8796.9524
   2   2.0000    -323.256043     -8796.2441
   3   2.0000    -323.256024     -8796.2436
   4   2.0000     -39.060940     -1062.9022
   5   2.0000     -39.060917     -1062.9016
   6   2.0000     -39.036183     -1062.2286
   7   2.0000     -39.036159     -1062.2279
   8   2.0000     -34.173879      -929.9185
   9   2.0000     -34.173867      -929.9182
  10   2.0000     -34.173229      -929.9008
  11   2.0000     -34.173219      -929.9006
  12   2.0000     -34.173020      -929.8952
  13   2.0000     -34.173006      -929.8948
  14   2.0000     -34.149404      -929.2525
  15   2.0000     -34.149384      -929.2520
  16   2.0000     -34.148636      -929.2316
  17   2.0000     -34.148616      -929.2311
  18   2.0000     -34.147334      -929.1962
  19   2.0000     -34.147314      -929.1957
  20   2.0000      -4.405465      -119.8788
  21   2.0000      -4.404961      -119.8651
  22   2.0000      -4.378201      -119.1369
  23   2.0000      -4.378180      -119.1363
  24   2.0000      -2.863448       -77.9184
  25   2.0000      -2.859010       -77.7976
  26   2.0000      -2.858344       -77.7795
  27   2.0000      -2.857882       -77.7669
  28   2.0000      -2.857603       -77.7593
  29   2.0000      -2.857240       -77.7495
  30   2.0000      -2.833578       -77.1056
  31   2.0000      -2.833474       -77.1028
  32   2.0000      -2.831204       -77.0410
  33   2.0000      -2.831157       -77.0397
  34   2.0000      -2.828542       -76.9685
  35   2.0000      -2.828523       -76.9680
  36   2.0000      -0.347660        -9.4603
  37   2.0000      -0.345739        -9.4080
  38   2.0000      -0.329438        -8.9645
  39   2.0000      -0.324466        -8.8292
  40   2.0000      -0.322825        -8.7845
  41   2.0000      -0.318878        -8.6771
  42   2.0000      -0.307867        -8.3775
  43   2.0000      -0.301712        -8.2100
  44   2.0000      -0.294453        -8.0125
  45   2.0000      -0.293655        -7.9908
  46   2.0000      -0.293311        -7.9814
  47   2.0000      -0.278396        -7.5755
  48   2.0000      -0.278343        -7.5741
  49   2.0000      -0.277626        -7.5546
  50   2.0000      -0.275279        -7.4907
  51   2.0000      -0.275195        -7.4884
  52   2.0000      -0.271908        -7.3990
  53   2.0000      -0.270134        -7.3507
  54   2.0000      -0.268707        -7.3119
  55   2.0000      -0.267878        -7.2893
  56   2.0000      -0.260013        -7.0753
  57   2.0000      -0.191535        -5.2119
  58   0.0000      -0.108052        -2.9403
  59   0.0000      -0.063338        -1.7235
  60   0.0000      -0.056277        -1.5314
  61   0.0000      -0.024777        -0.6742
  62   0.0000      -0.019338        -0.5262

MULLIKEN ATOMIC CHARGES
-----------------------
   0 Cu:    0.057744
   1 Cu:   -0.057536
   2 Cu:    0.057709
   3 Cu:   -0.057916
Sum of atomic charges:    0.0000000

LOEWDIN ATOMIC CHARGES
----------------------
   0 Cu:    0.150928
   1 Cu:   -0.150657
   2 Cu:    0.150928
   3 Cu:   -0.151199

  Mayer bond orders larger than 0.100000
B(  0-Cu,  1-Cu) :   0.4059 B(  0-Cu,  2-Cu) :   0.2500 B(  0-Cu,  3-Cu) :   0.4049
B(  1-Cu,  2-Cu) :   0.4047 B(  1-Cu,  3-Cu) :   0.7121 B(  2-Cu,  3-Cu) :   0.4062

Dispersion correction           -0.000061889
FINAL SINGLE POINT ENERGY     -6562.023220131521

DIPOLE MOMENT
-------------
                                X             Y             Z
Electronic contribution:      0.00092       0.00008       0.00001
Nuclear contribution   :      0.00000       0.00000      -0.00000
                        -----------------------------------------
Total Dipole Moment    :      0.00092       0.00008       0.00001
                        -----------------------------------------
Magnitude (a.u.)       :      0.00093
Magnitude (Debye)      :      0.00235

Rotational constants in cm-1:     0.103116     0.030352     0.023450
Rotational constants in MHz :  3091.345194   909.942810   703.010463

                             ****ORCA TERMINATED NORMALLY****
TOTAL RUN TIME: 0 days 0 hours 0 minutes 15 seconds 793 msec
