                         Program Version 4.2.0 -  RELEASE  -
|  1> #
|  2> # Cu04C2_H_F M06-D3BJ/Def2-TZVPPD
|  3> #
|  4> ! m06 d3zero def2-tzvppd def2/jk grid4 nofinalgrid
|  5>
|  6> *xyz 2 2
|  7> Cu      -0.000000    1.387730   -0.507533
|  8> Cu       1.201809   -0.693865   -0.507533
|  9> Cu      -1.201809   -0.693865   -0.507533
| 10> Cu       0.000000    0.000000    1.576640
| 11> H        0.000000    0.000000   -1.567185
| 12> *
| 13>
| 14> %maxcore 5000
| 15>
| 16> %pal
| 17> nprocs = 24
| 18> end
| 19>
| 20>
| 21>                          ****END OF INPUT****

CARTESIAN COORDINATES (ANGSTROEM)
---------------------------------
  Cu    -0.000000    1.387730   -0.507533
  Cu     1.201809   -0.693865   -0.507533
  Cu    -1.201809   -0.693865   -0.507533
  Cu     0.000000    0.000000    1.576640
  H      0.000000    0.000000   -1.567185

 Total Charge           Charge          ....    2
 Multiplicity           Mult            ....    2
 Number of Electrons    NEL             ....  115
 Basis Dimension        Dim             ....  285

ORBITAL ENERGIES
----------------
                 SPIN UP ORBITALS
  NO   OCC          E(Eh)            E(eV)
   0   1.0000    -323.705726     -8808.4806
   1   1.0000    -323.705718     -8808.4804
   2   1.0000    -323.705712     -8808.4802
   3   1.0000    -323.673462     -8807.6027
   4   1.0000     -39.482160     -1074.3642
   5   1.0000     -39.482152     -1074.3640
   6   1.0000     -39.482132     -1074.3634
   7   1.0000     -39.448687     -1073.4534
   8   1.0000     -34.595937      -941.4033
   9   1.0000     -34.595929      -941.4031
  10   1.0000     -34.595922      -941.4029
  11   1.0000     -34.594755      -941.3711
  12   1.0000     -34.594746      -941.3709
  13   1.0000     -34.594742      -941.3708
  14   1.0000     -34.594204      -941.3562
  15   1.0000     -34.594191      -941.3558
  16   1.0000     -34.594186      -941.3557
  17   1.0000     -34.562036      -940.4808
  18   1.0000     -34.561193      -940.4579
  19   1.0000     -34.561193      -940.4579
  20   1.0000      -4.828234      -131.3829
  21   1.0000      -4.827867      -131.3730
  22   1.0000      -4.827860      -131.3728
  23   1.0000      -4.793535      -130.4387
  24   1.0000      -3.286895       -89.4410
  25   1.0000      -3.284391       -89.3728
  26   1.0000      -3.284384       -89.3726
  27   1.0000      -3.281871       -89.3042
  28   1.0000      -3.281505       -89.2943
  29   1.0000      -3.281497       -89.2941
  30   1.0000      -3.280540       -89.2680
  31   1.0000      -3.280539       -89.2680
  32   1.0000      -3.279688       -89.2449
  33   1.0000      -3.248621       -88.3995
  34   1.0000      -3.246274       -88.3356
  35   1.0000      -3.246274       -88.3356
  36   1.0000      -0.857486       -23.3334
  37   1.0000      -0.776852       -21.1392
  38   1.0000      -0.752547       -20.4779
  39   1.0000      -0.752541       -20.4777
  40   1.0000      -0.742642       -20.2083
  41   1.0000      -0.742590       -20.2069
  42   1.0000      -0.742582       -20.2067
  43   1.0000      -0.730804       -19.8862
  44   1.0000      -0.728950       -19.8357
  45   1.0000      -0.728939       -19.8354
  46   1.0000      -0.721457       -19.6318
  47   1.0000      -0.721453       -19.6317
  48   1.0000      -0.718156       -19.5420
  49   1.0000      -0.717505       -19.5243
  50   1.0000      -0.717487       -19.5238
  51   1.0000      -0.700252       -19.0548
  52   1.0000      -0.692842       -18.8532
  53   1.0000      -0.692837       -18.8531
  54   1.0000      -0.689628       -18.7657
  55   1.0000      -0.686145       -18.6709
  56   1.0000      -0.686126       -18.6704
  57   1.0000      -0.598860       -16.2958
  58   0.0000      -0.476232       -12.9589
  59   0.0000      -0.476231       -12.9589
  60   0.0000      -0.396027       -10.7765
  61   0.0000      -0.363463        -9.8903
  62   0.0000      -0.343867        -9.3571

                 SPIN DOWN ORBITALS
  NO   OCC          E(Eh)            E(eV)
   0   1.0000    -323.705569     -8808.4763
   1   1.0000    -323.705561     -8808.4761
   2   1.0000    -323.705555     -8808.4760
   3   1.0000    -323.672644     -8807.5804
   4   1.0000     -39.480419     -1074.3168
   5   1.0000     -39.480411     -1074.3166
   6   1.0000     -39.480391     -1074.3160
   7   1.0000     -39.448534     -1073.4492
   8   1.0000     -34.593520      -941.3375
   9   1.0000     -34.593507      -941.3372
  10   1.0000     -34.593506      -941.3372
  11   1.0000     -34.593500      -941.3370
  12   1.0000     -34.593496      -941.3369
  13   1.0000     -34.593488      -941.3367
  14   1.0000     -34.592793      -941.3178
  15   1.0000     -34.592785      -941.3175
  16   1.0000     -34.592778      -941.3174
  17   1.0000     -34.561848      -940.4757
  18   1.0000     -34.561171      -940.4573
  19   1.0000     -34.561170      -940.4573
  20   1.0000      -4.824175      -131.2725
  21   1.0000      -4.823812      -131.2626
  22   1.0000      -4.823805      -131.2624
  23   1.0000      -4.793102      -130.4269
  24   1.0000      -3.280997       -89.2805
  25   1.0000      -3.279360       -89.2359
  26   1.0000      -3.279358       -89.2359
  27   1.0000      -3.277598       -89.1880
  28   1.0000      -3.277594       -89.1879
  29   1.0000      -3.277586       -89.1877
  30   1.0000      -3.276292       -89.1524
  31   1.0000      -3.276031       -89.1453
  32   1.0000      -3.276021       -89.1451
  33   1.0000      -3.248993       -88.4096
  34   1.0000      -3.246571       -88.3437
  35   1.0000      -3.246570       -88.3437
  36   1.0000      -0.835500       -22.7351
  37   1.0000      -0.769890       -20.9498
  38   1.0000      -0.750236       -20.4150
  39   1.0000      -0.750229       -20.4148
  40   1.0000      -0.737848       -20.0779
  41   1.0000      -0.737847       -20.0778
  42   1.0000      -0.737829       -20.0773
  43   1.0000      -0.725956       -19.7543
  44   1.0000      -0.725945       -19.7540
  45   1.0000      -0.723554       -19.6889
  46   1.0000      -0.715430       -19.4678
  47   1.0000      -0.714932       -19.4543
  48   1.0000      -0.714913       -19.4538
  49   1.0000      -0.707083       -19.2407
  50   1.0000      -0.707081       -19.2407
  51   1.0000      -0.697890       -18.9905
  52   1.0000      -0.691739       -18.8232
  53   1.0000      -0.691735       -18.8231
  54   1.0000      -0.686556       -18.6821
  55   1.0000      -0.682521       -18.5723
  56   1.0000      -0.682502       -18.5718
  57   0.0000      -0.519940       -14.1483
  58   0.0000      -0.470425       -12.8009
  59   0.0000      -0.470422       -12.8008
  60   0.0000      -0.383689       -10.4407
  61   0.0000      -0.356450        -9.6995

MULLIKEN ATOMIC CHARGES AND SPIN POPULATIONS
--------------------------------------------
   0 Cu:    0.413533    0.045735
   1 Cu:    0.413536    0.045740
   2 Cu:    0.413521    0.045749
   3 Cu:    0.366709    0.584917
   4 H :    0.392702    0.277859
Sum of atomic charges         :    2.0000000

LOEWDIN ATOMIC CHARGES AND SPIN POPULATIONS
-------------------------------------------
   0 Cu:    0.482788    0.225609
   1 Cu:    0.482757    0.225627
   2 Cu:    0.482756    0.225627
   3 Cu:    0.531839    0.187392
   4 H :    0.019860    0.135745

  Mayer bond orders larger than 0.100000
B(  0-Cu,  1-Cu) :   0.4950 B(  0-Cu,  2-Cu) :   0.4950 B(  0-Cu,  3-Cu) :   0.2267
B(  0-Cu,  4-H ) :   0.1043 B(  1-Cu,  2-Cu) :   0.4949 B(  1-Cu,  3-Cu) :   0.2269
B(  1-Cu,  4-H ) :   0.1041 B(  2-Cu,  3-Cu) :   0.2269 B(  2-Cu,  4-H ) :   0.1041
B(  3-Cu,  4-H ) :   0.1225

Dispersion correction           -0.000057668
FINAL SINGLE POINT ENERGY     -6561.901338557743

DIPOLE MOMENT
-------------
                                X             Y             Z
Electronic contribution:     -0.00000       0.00015       1.47273
Nuclear contribution   :      0.00000       0.00000      -1.60670
                        -----------------------------------------
Total Dipole Moment    :     -0.00000       0.00015      -0.13397
                        -----------------------------------------
Magnitude (a.u.)       :      0.13397
Magnitude (Debye)      :      0.34053

Rotational constants in cm-1:     0.045915     0.042882     0.042882
Rotational constants in MHz :  1376.483459  1285.559854  1285.559421

                             ****ORCA TERMINATED NORMALLY****
TOTAL RUN TIME: 0 days 0 hours 0 minutes 22 seconds 48 msec
