                         Program Version 4.2.0 -  RELEASE  -
|  1> #
|  2> # Cu04C2_H_E M06-D3BJ/Def2-TZVPPD
|  3> #
|  4> ! m06 d3zero def2-tzvppd def2/jk grid4 nofinalgrid
|  5>
|  6> *xyz 2 2
|  7> Cu      -0.967673    0.056725    1.180703
|  8> Cu      -0.972439   -0.054931   -1.177653
|  9> Cu       0.936359    1.185605   -0.057167
| 10> Cu       0.933653   -1.187345    0.053806
| 11> H        2.032882   -0.001578    0.009000
| 12> *
| 13>
| 14> %maxcore 5000
| 15>
| 16> %pal
| 17> nprocs = 24
| 18> end
| 19>
| 20>
| 21>                          ****END OF INPUT****

CARTESIAN COORDINATES (ANGSTROEM)
---------------------------------
  Cu    -0.967673    0.056725    1.180703
  Cu    -0.972439   -0.054931   -1.177653
  Cu     0.936359    1.185605   -0.057167
  Cu     0.933653   -1.187345    0.053806
  H      2.032882   -0.001578    0.009000

 Total Charge           Charge          ....    2
 Multiplicity           Mult            ....    2
 Number of Electrons    NEL             ....  115
 Basis Dimension        Dim             ....  285

ORBITAL ENERGIES
----------------
                 SPIN UP ORBITALS
  NO   OCC          E(Eh)            E(eV)
   0   1.0000    -323.709672     -8808.5880
   1   1.0000    -323.709661     -8808.5877
   2   1.0000    -323.685050     -8807.9180
   3   1.0000    -323.684985     -8807.9162
   4   1.0000     -39.489112     -1074.5534
   5   1.0000     -39.489098     -1074.5530
   6   1.0000     -39.459638     -1073.7513
   7   1.0000     -39.459575     -1073.7496
   8   1.0000     -34.604389      -941.6333
   9   1.0000     -34.604378      -941.6330
  10   1.0000     -34.601413      -941.5523
  11   1.0000     -34.601405      -941.5521
  12   1.0000     -34.599048      -941.4880
  13   1.0000     -34.599040      -941.4878
  14   1.0000     -34.572856      -940.7752
  15   1.0000     -34.572795      -940.7736
  16   1.0000     -34.572533      -940.7664
  17   1.0000     -34.572468      -940.7647
  18   1.0000     -34.572271      -940.7593
  19   1.0000     -34.572211      -940.7577
  20   1.0000      -4.834337      -131.5490
  21   1.0000      -4.834055      -131.5413
  22   1.0000      -4.805374      -130.7609
  23   1.0000      -4.805072      -130.7527
  24   1.0000      -3.294715       -89.6538
  25   1.0000      -3.292861       -89.6033
  26   1.0000      -3.288569       -89.4865
  27   1.0000      -3.287434       -89.4556
  28   1.0000      -3.283079       -89.3371
  29   1.0000      -3.282853       -89.3310
  30   1.0000      -3.261726       -88.7561
  31   1.0000      -3.259692       -88.7007
  32   1.0000      -3.259294       -88.6899
  33   1.0000      -3.258341       -88.6640
  34   1.0000      -3.258271       -88.6621
  35   1.0000      -3.258127       -88.6582
  36   1.0000      -0.826276       -22.4841
  37   1.0000      -0.777442       -21.1553
  38   1.0000      -0.753004       -20.4903
  39   1.0000      -0.752924       -20.4881
  40   1.0000      -0.744817       -20.2675
  41   1.0000      -0.740039       -20.1375
  42   1.0000      -0.737489       -20.0681
  43   1.0000      -0.733084       -19.9482
  44   1.0000      -0.732390       -19.9294
  45   1.0000      -0.722591       -19.6627
  46   1.0000      -0.722407       -19.6577
  47   1.0000      -0.720572       -19.6078
  48   1.0000      -0.713677       -19.4201
  49   1.0000      -0.711113       -19.3504
  50   1.0000      -0.702688       -19.1211
  51   1.0000      -0.701068       -19.0770
  52   1.0000      -0.700997       -19.0751
  53   1.0000      -0.697557       -18.9815
  54   1.0000      -0.695111       -18.9149
  55   1.0000      -0.691196       -18.8084
  56   1.0000      -0.686131       -18.6706
  57   1.0000      -0.621017       -16.8987
  58   0.0000      -0.473434       -12.8828
  59   0.0000      -0.468504       -12.7486
  60   0.0000      -0.410059       -11.1583
  61   0.0000      -0.359981        -9.7956
  62   0.0000      -0.353352        -9.6152

                 SPIN DOWN ORBITALS
  NO   OCC          E(Eh)            E(eV)
   0   1.0000    -323.709473     -8808.5826
   1   1.0000    -323.709461     -8808.5823
   2   1.0000    -323.684640     -8807.9068
   3   1.0000    -323.684571     -8807.9050
   4   1.0000     -39.485995     -1074.4685
   5   1.0000     -39.485980     -1074.4682
   6   1.0000     -39.459285     -1073.7417
   7   1.0000     -39.459230     -1073.7402
   8   1.0000     -34.599887      -941.5108
   9   1.0000     -34.599872      -941.5104
  10   1.0000     -34.598397      -941.4702
  11   1.0000     -34.598388      -941.4700
  12   1.0000     -34.597528      -941.4466
  13   1.0000     -34.597520      -941.4464
  14   1.0000     -34.572453      -940.7643
  15   1.0000     -34.572399      -940.7628
  16   1.0000     -34.572183      -940.7569
  17   1.0000     -34.572126      -940.7554
  18   1.0000     -34.572109      -940.7549
  19   1.0000     -34.572057      -940.7535
  20   1.0000      -4.826400      -131.3330
  21   1.0000      -4.826128      -131.3256
  22   1.0000      -4.804514      -130.7375
  23   1.0000      -4.804196      -130.7288
  24   1.0000      -3.282004       -89.3079
  25   1.0000      -3.280038       -89.2544
  26   1.0000      -3.279846       -89.2491
  27   1.0000      -3.279000       -89.2261
  28   1.0000      -3.278435       -89.2107
  29   1.0000      -3.278223       -89.2050
  30   1.0000      -3.260992       -88.7361
  31   1.0000      -3.258905       -88.6793
  32   1.0000      -3.258439       -88.6666
  33   1.0000      -3.258218       -88.6606
  34   1.0000      -3.258006       -88.6549
  35   1.0000      -3.257392       -88.6381
  36   1.0000      -0.796749       -21.6806
  37   1.0000      -0.768048       -20.8997
  38   1.0000      -0.748146       -20.3581
  39   1.0000      -0.746046       -20.3009
  40   1.0000      -0.740075       -20.1385
  41   1.0000      -0.734263       -19.9803
  42   1.0000      -0.733598       -19.9622
  43   1.0000      -0.729043       -19.8383
  44   1.0000      -0.721435       -19.6312
  45   1.0000      -0.717568       -19.5260
  46   1.0000      -0.715311       -19.4646
  47   1.0000      -0.711595       -19.3635
  48   1.0000      -0.706929       -19.2365
  49   1.0000      -0.706901       -19.2358
  50   1.0000      -0.700961       -19.0741
  51   1.0000      -0.696261       -18.9462
  52   1.0000      -0.695039       -18.9130
  53   1.0000      -0.694293       -18.8927
  54   1.0000      -0.690125       -18.7793
  55   1.0000      -0.687073       -18.6962
  56   1.0000      -0.682002       -18.5582
  57   0.0000      -0.535689       -14.5768
  58   0.0000      -0.467418       -12.7191
  59   0.0000      -0.464729       -12.6459
  60   0.0000      -0.393348       -10.7035
  61   0.0000      -0.356340        -9.6965

MULLIKEN ATOMIC CHARGES AND SPIN POPULATIONS
--------------------------------------------
   0 Cu:    0.354850    0.273208
   1 Cu:    0.354431    0.276255
   2 Cu:    0.325090    0.068856
   3 Cu:    0.324991    0.068847
   4 H :    0.640638    0.312834
Sum of atomic charges         :    2.0000000

LOEWDIN ATOMIC CHARGES AND SPIN POPULATIONS
-------------------------------------------
   0 Cu:    0.509969    0.130927
   1 Cu:    0.510275    0.130833
   2 Cu:    0.473580    0.285111
   3 Cu:    0.473404    0.285192
   4 H :    0.032773    0.167937

  Mayer bond orders larger than 0.100000
B(  0-Cu,  1-Cu) :   0.6917 B(  0-Cu,  2-Cu) :   0.2217 B(  0-Cu,  3-Cu) :   0.2219
B(  1-Cu,  2-Cu) :   0.2196 B(  1-Cu,  3-Cu) :   0.2203 B(  2-Cu,  3-Cu) :   0.7743

Dispersion correction           -0.000126125
FINAL SINGLE POINT ENERGY     -6561.901790684245

DIPOLE MOMENT
-------------
                                X             Y             Z
Electronic contribution:     -2.21730       0.00208      -0.01020
Nuclear contribution   :      2.08414      -0.00162       0.00923
                        -----------------------------------------
Total Dipole Moment    :     -0.13316       0.00046      -0.00098
                        -----------------------------------------
Magnitude (a.u.)       :      0.13316
Magnitude (Debye)      :      0.33847

Rotational constants in cm-1:     0.047295     0.040918     0.040701
Rotational constants in MHz :  1417.862725  1226.705268  1220.194326

                             ****ORCA TERMINATED NORMALLY****
TOTAL RUN TIME: 0 days 0 hours 0 minutes 22 seconds 84 msec
