                         Program Version 4.2.0 -  RELEASE  -
|  1> #
|  2> # NH3 M06-D3BJ/Def2-TZVPPD
|  3> #
|  4> ! m06 d3zero def2-tzvppd def2/jk grid4 nofinalgrid
|  5>
|  6> *xyz 0 1
|  7> N       -0.000000    0.125670    0.000000
|  8> H       -0.933163   -0.293418    0.000000
|  9> H        0.466582   -0.293138    0.808252
| 10> H        0.466582   -0.293138   -0.808252
| 11> *
| 12>
| 13> %maxcore 5000
| 14>
| 15> %pal
| 16> nprocs = 24
| 17> end
| 18>
| 19>
| 20>                          ****END OF INPUT****

CARTESIAN COORDINATES (ANGSTROEM)
---------------------------------
  N     -0.000000    0.125670    0.000000
  H     -0.933163   -0.293418    0.000000
  H      0.466582   -0.293138    0.808252
  H      0.466582   -0.293138   -0.808252

 Total Charge           Charge          ....    0
 Multiplicity           Mult            ....    1
 Number of Electrons    NEL             ....   10
 Basis Dimension        Dim             ....   88

ORBITAL ENERGIES
----------------

  NO   OCC          E(Eh)            E(eV)
   0   2.0000     -14.365569      -390.9070
   1   2.0000      -0.866777       -23.5862
   2   2.0000      -0.464532       -12.6405
   3   2.0000      -0.464478       -12.6391
   4   2.0000      -0.289062        -7.8658
   5   0.0000      -0.016563        -0.4507
   6   0.0000       0.049030         1.3342
   7   0.0000       0.049036         1.3343
   8   0.0000       0.104747         2.8503
   9   0.0000       0.114222         3.1081

MULLIKEN ATOMIC CHARGES
-----------------------
   0 N :   -0.413345
   1 H :    0.136699
   2 H :    0.138323
   3 H :    0.138323
Sum of atomic charges:   -0.0000000

LOEWDIN ATOMIC CHARGES
----------------------
   0 N :    0.439028
   1 H :   -0.146361
   2 H :   -0.146334
   3 H :   -0.146334

  Mayer bond orders larger than 0.100000
B(  0-N ,  1-H ) :   0.9990 B(  0-N ,  2-H ) :   0.9974 B(  0-N ,  3-H ) :   0.9974

Dispersion correction           -0.000000564
FINAL SINGLE POINT ENERGY       -56.545083157468

DIPOLE MOMENT
-------------
                                X             Y             Z
Electronic contribution:      0.00005       0.33109      -0.00000
Nuclear contribution   :      0.00000      -0.96926       0.00000
                        -----------------------------------------
Total Dipole Moment    :      0.00005      -0.63817      -0.00000
                        -----------------------------------------
Magnitude (a.u.)       :      0.63817
Magnitude (Debye)      :      1.62210

Rotational constants in cm-1:     9.616093     9.614148     6.400903
Rotational constants in MHz : 288283.214631 288224.911301 191894.257358

                             ****ORCA TERMINATED NORMALLY****
TOTAL RUN TIME: 0 days 0 hours 0 minutes 3 seconds 22 msec
