                         Program Version 4.2.0 -  RELEASE  -
|  1> #
|  2> # Ag01N0_F TPSSh-D3BJ/Def2-TZVPPD
|  3> #
|  4> ! tpssh d3bj def2-tzvppd def2/jk grid4 nofinalgrid opt xyzfile numfreq
|  5>
|  6> *xyz 0 1
|  7> Ag       0.000000    0.000000    0.317712
|  8> F        0.000000    0.000000   -1.659163
|  9> *
| 10>
| 11> %maxcore 5000
| 12>
| 13> %pal
| 14> nprocs = 24
| 15> end
| 16>
| 17>
| 18>                          ****END OF INPUT****
 Total Charge           Charge          ....    0
 Multiplicity           Mult            ....    1
 Number of Electrons    NEL             ....   28
Dispersion correction           -0.000557563
FINAL SINGLE POINT ENERGY      -246.804683247124
Dispersion correction            ... done
Dispersion correction           -0.000557556
FINAL SINGLE POINT ENERGY      -246.804693527745
Dispersion correction            ... done
Dispersion correction           -0.000557541
FINAL SINGLE POINT ENERGY      -246.804709474382
Dispersion correction            ... done
                    ***********************HURRAY********************

CARTESIAN COORDINATES (ANGSTROEM)
---------------------------------
  Ag     0.000000    0.000000    0.321845
  F      0.000000    0.000000   -1.663296

 Multiplicity           Mult            ....    1
 Number of Electrons    NEL             ....   28
 Basis Dimension        Dim             ....   96

ORBITAL ENERGIES
----------------

  NO   OCC          E(Eh)            E(eV)
   0   2.0000     -24.486246      -666.3046
   1   2.0000      -3.697917      -100.6254
   2   2.0000      -2.305367       -62.7322
   3   2.0000      -2.303213       -62.6736
   4   2.0000      -2.303213       -62.6736
   5   2.0000      -1.012738       -27.5580
   6   2.0000      -0.374161       -10.1814
   7   2.0000      -0.345112        -9.3910
   8   2.0000      -0.345112        -9.3910
   9   2.0000      -0.327456        -8.9105
  10   2.0000      -0.327456        -8.9105
  11   2.0000      -0.265441        -7.2230
  12   2.0000      -0.265441        -7.2230
  13   2.0000      -0.262613        -7.1461
  14   0.0000      -0.130902        -3.5620
  15   0.0000      -0.006011        -0.1636
  16   0.0000      -0.006011        -0.1636
  17   0.0000       0.033664         0.9160
  18   0.0000       0.083300         2.2667

MULLIKEN ATOMIC CHARGES
-----------------------
   0 Ag:    0.679750
   1 F :   -0.679750
Sum of atomic charges:   -0.0000000

LOEWDIN ATOMIC CHARGES
----------------------
   0 Ag:    0.700372
   1 F :   -0.700372

  Mayer bond orders larger than 0.100000
B(  0-Ag,  1-F ) :   0.5277

Dispersion correction           -0.000557540
FINAL SINGLE POINT ENERGY      -246.804709593212

DIPOLE MOMENT
-------------
                                X             Y             Z
Electronic contribution:      0.00000      -0.00000      20.23089
Nuclear contribution   :      0.00000       0.00000     -18.03324
                        -----------------------------------------
Total Dipole Moment    :      0.00000      -0.00000       2.19765
                        -----------------------------------------
Magnitude (a.u.)       :      2.19765
Magnitude (Debye)      :      5.58597

VIBRATIONAL FREQUENCIES
-----------------------

Scaling factor for frequencies =  1.000000000 (already applied!)

   0:         0.00 cm**-1
   1:         0.00 cm**-1
   2:         0.00 cm**-1
   3:         0.00 cm**-1
   4:         0.00 cm**-1
   5:       498.28 cm**-1

IR SPECTRUM
-----------

 Mode    freq (cm**-1)   T**2         TX         TY         TZ
-------------------------------------------------------------------
   5:       498.28   48.040516  ( -0.000032   0.000023   6.931127)

--------------------------
THERMOCHEMISTRY AT 298.15K
--------------------------

Temperature         ... 298.15 K
Pressure            ... 1.00 atm
Total Mass          ... 126.87 AMU
The molecule is recognized as being linear

Throughout the following assumptions are being made:
  (1) The electronic state is orbitally nondegenerate
  (2) There are no thermally accessible electronically excited states
  (3) Hindered rotations indicated by low frequency modes are not
      treated as such but are treated as vibrations and this may
      cause some error
  (4) All equations used are the standard statistical mechanics
      equations for an ideal gas
  (5) All vibrations are strictly harmonic

freq.     498.28  E(vib)   ...       0.14

------------
INNER ENERGY
------------

The inner energy is: U= E(el) + E(ZPE) + E(vib) + E(rot) + E(trans)
    E(el)   - is the total energy from the electronic structure calculation
              = E(kin-el) + E(nuc-el) + E(el-el) + E(nuc-nuc)
    E(ZPE)  - the the zero temperature vibrational energy from the frequency calculation
    E(vib)  - the the finite temperature correction to E(ZPE) due to population
              of excited vibrational states
    E(rot)  - is the rotational thermal energy
    E(trans)- is the translational thermal energy

Summary of contributions to the inner energy U:
Electronic energy                ...   -246.80470959 Eh
Zero point energy                ...      0.00113515 Eh       0.71 kcal/mol
Thermal vibrational correction   ...      0.00022540 Eh       0.14 kcal/mol
Thermal rotational correction    ...      0.00094418 Eh       0.59 kcal/mol
Thermal translational correction ...      0.00141627 Eh       0.89 kcal/mol
-----------------------------------------------------------------------
Total thermal energy                   -246.80098859 Eh

Summary of corrections to the electronic energy:
(perhaps to be used in another calculation)
Total thermal correction                  0.00258585 Eh       1.62 kcal/mol
Non-thermal (ZPE) correction              0.00113515 Eh       0.71 kcal/mol
-----------------------------------------------------------------------
Total correction                          0.00372101 Eh       2.33 kcal/mol

--------
ENTHALPY
--------

The enthalpy is H = U + kB*T
                kB is Boltzmann's constant
Total free energy                 ...   -246.80098859 Eh
Thermal Enthalpy correction       ...      0.00094421 Eh       0.59 kcal/mol
-----------------------------------------------------------------------
Total Enthalpy                    ...   -246.80004438 Eh

Note: Rotational entropy computed according to Herzberg
Infrared and Raman Spectra, Chapter V,1, Van Nostrand Reinhold, 1945
Point Group:  Cinfv, Symmetry Number:   1
Rotational constants in cm-1:     0.000000     0.264824     0.264824

Vibrational entropy computed according to the QRRHO of S. Grimme
Chem.Eur.J. 2012 18 9955

-------
ENTROPY
-------

The entropy contributions are T*S = T*(S(el)+S(vib)+S(rot)+S(trans))
     S(el)   - electronic entropy
     S(vib)  - vibrational entropy
     S(rot)  - rotational entropy
     S(trans)- translational entropy
The entropies will be listed as mutliplied by the temperature to get
units of energy

Electronic entropy                ...      0.00000000 Eh      0.00 kcal/mol
Vibrational entropy               ...      0.00031522 Eh      0.20 kcal/mol
Rotational entropy                ...      0.00723478 Eh      4.54 kcal/mol
Translational entropy             ...      0.01920828 Eh     12.05 kcal/mol
-----------------------------------------------------------------------
Final entropy term                ...      0.02675829 Eh     16.79 kcal/mol

In case the symmetry of your molecule has not been determined correctly
or in case you have a reason to use a different symmetry number we print
out the resulting rotational entropy values for sn=1,12 :
 --------------------------------------------------------
|  sn= 1 | S(rot)=             -inf Eh      -inf kcal/mol|
|  sn= 2 | S(rot)=             -inf Eh      -inf kcal/mol|
|  sn= 3 | S(rot)=             -inf Eh      -inf kcal/mol|
|  sn= 4 | S(rot)=             -inf Eh      -inf kcal/mol|
|  sn= 5 | S(rot)=             -inf Eh      -inf kcal/mol|
|  sn= 6 | S(rot)=             -inf Eh      -inf kcal/mol|
|  sn= 7 | S(rot)=             -inf Eh      -inf kcal/mol|
|  sn= 8 | S(rot)=             -inf Eh      -inf kcal/mol|
|  sn= 9 | S(rot)=             -inf Eh      -inf kcal/mol|
|  sn=10 | S(rot)=             -inf Eh      -inf kcal/mol|
|  sn=11 | S(rot)=             -inf Eh      -inf kcal/mol|
|  sn=12 | S(rot)=             -inf Eh      -inf kcal/mol|
 --------------------------------------------------------

-------------------
GIBBS FREE ENERGY
-------------------

The Gibbs free energy is G = H - T*S

Total enthalpy                    ...   -246.80004438 Eh
Total entropy correction          ...     -0.02675829 Eh    -16.79 kcal/mol
-----------------------------------------------------------------------
Final Gibbs free energy         ...   -246.82680267 Eh

For completeness - the Gibbs free energy minus the electronic energy
G-E(el)                           ...     -0.02209308 Eh    -13.86 kcal/mol

                             ****ORCA TERMINATED NORMALLY****
TOTAL RUN TIME: 0 days 0 hours 0 minutes 45 seconds 215 msec
