                         Program Version 4.2.0 -  RELEASE  -
|  1> #
|  2> # Ag03C1_D3H TPSSh-D3BJ/Def2-TZVPPD
|  3> #
|  4> ! tpssh d3bj def2-tzvppd def2/jk grid4 nofinalgrid opt xyzfile numfreq
|  5>
|  6> *xyz 1 1
|  7> Ag       0.000000    1.529877    0.000000
|  8> Ag       1.324912   -0.764938    0.000000
|  9> Ag      -1.324912   -0.764938    0.000000
| 10> *
| 11>
| 12> %maxcore 5000
| 13>
| 14> %pal
| 15> nprocs = 24
| 16> end
| 17>
| 18>
| 19>                          ****END OF INPUT****
 Total Charge           Charge          ....    1
 Multiplicity           Mult            ....    1
 Number of Electrons    NEL             ....   56
Dispersion correction           -0.005491271
FINAL SINGLE POINT ENERGY      -440.628781068741
Dispersion correction            ... done
Dispersion correction           -0.005490852
FINAL SINGLE POINT ENERGY      -440.628805690943
Dispersion correction            ... done
Dispersion correction           -0.005485743
FINAL SINGLE POINT ENERGY      -440.628963603471
Dispersion correction            ... done
                    ***********************HURRAY********************

CARTESIAN COORDINATES (ANGSTROEM)
---------------------------------
  Ag    -0.000000    1.545509    0.000000
  Ag     1.337046   -0.772754    0.000000
  Ag    -1.337046   -0.772754    0.000000

 Multiplicity           Mult            ....    1
 Number of Electrons    NEL             ....   56
 Basis Dimension        Dim             ....  168

ORBITAL ENERGIES
----------------

  NO   OCC          E(Eh)            E(eV)
   0   2.0000      -3.862945      -105.1161
   1   2.0000      -3.862497      -105.1039
   2   2.0000      -3.862495      -105.1038
   3   2.0000      -2.472799       -67.2883
   4   2.0000      -2.470172       -67.2168
   5   2.0000      -2.470156       -67.2164
   6   2.0000      -2.467483       -67.1436
   7   2.0000      -2.467477       -67.1435
   8   2.0000      -2.467426       -67.1421
   9   2.0000      -2.466128       -67.1068
  10   2.0000      -2.465639       -67.0934
  11   2.0000      -2.465635       -67.0933
  12   2.0000      -0.540424       -14.7057
  13   2.0000      -0.522652       -14.2221
  14   2.0000      -0.522525       -14.2186
  15   2.0000      -0.517035       -14.0692
  16   2.0000      -0.503617       -13.7041
  17   2.0000      -0.500029       -13.6065
  18   2.0000      -0.499975       -13.6050
  19   2.0000      -0.482480       -13.1290
  20   2.0000      -0.482417       -13.1272
  21   2.0000      -0.478746       -13.0273
  22   2.0000      -0.476112       -12.9557
  23   2.0000      -0.476097       -12.9553
  24   2.0000      -0.475339       -12.9346
  25   2.0000      -0.475278       -12.9330
  26   2.0000      -0.459797       -12.5117
  27   2.0000      -0.414589       -11.2815
  28   0.0000      -0.275733        -7.5031
  29   0.0000      -0.275636        -7.5004
  30   0.0000      -0.201252        -5.4764
  31   0.0000      -0.171467        -4.6659
  32   0.0000      -0.158140        -4.3032

MULLIKEN ATOMIC CHARGES
-----------------------
   0 Ag:    0.333520
   1 Ag:    0.333240
   2 Ag:    0.333241
Sum of atomic charges:    1.0000000

LOEWDIN ATOMIC CHARGES
----------------------
   0 Ag:    0.333548
   1 Ag:    0.333226
   2 Ag:    0.333226

  Mayer bond orders larger than 0.100000
B(  0-Ag,  1-Ag) :   0.5596 B(  0-Ag,  2-Ag) :   0.5596 B(  1-Ag,  2-Ag) :   0.5602

Dispersion correction           -0.005485429
FINAL SINGLE POINT ENERGY      -440.628965494049

DIPOLE MOMENT
-------------
                                X             Y             Z
Electronic contribution:      0.00000       0.00099      -0.00000
Nuclear contribution   :      0.00000       0.00000       0.00000
                        -----------------------------------------
Total Dipole Moment    :      0.00000       0.00099      -0.00000
                        -----------------------------------------
Magnitude (a.u.)       :      0.00099
Magnitude (Debye)      :      0.00252

VIBRATIONAL FREQUENCIES
-----------------------

Scaling factor for frequencies =  1.000000000 (already applied!)

   0:         0.00 cm**-1
   1:         0.00 cm**-1
   2:         0.00 cm**-1
   3:         0.00 cm**-1
   4:         0.00 cm**-1
   5:         0.00 cm**-1
   6:       121.58 cm**-1
   7:       123.32 cm**-1
   8:       178.52 cm**-1

IR SPECTRUM
-----------

 Mode    freq (cm**-1)   T**2         TX         TY         TZ
-------------------------------------------------------------------
   6:       121.58    0.970214  ( -0.984995   0.000121   0.000016)
   7:       123.32    1.235160  (  0.000096   1.111377  -0.000011)
   8:       178.52    0.000000  (  0.000009  -0.000005  -0.000010)

--------------------------
THERMOCHEMISTRY AT 298.15K
--------------------------

Temperature         ... 298.15 K
Pressure            ... 1.00 atm
Total Mass          ... 323.61 AMU

Throughout the following assumptions are being made:
  (1) The electronic state is orbitally nondegenerate
  (2) There are no thermally accessible electronically excited states
  (3) Hindered rotations indicated by low frequency modes are not
      treated as such but are treated as vibrations and this may
      cause some error
  (4) All equations used are the standard statistical mechanics
      equations for an ideal gas
  (5) All vibrations are strictly harmonic

freq.     121.58  E(vib)   ...       0.44
freq.     123.32  E(vib)   ...       0.43
freq.     178.52  E(vib)   ...       0.37

------------
INNER ENERGY
------------

The inner energy is: U= E(el) + E(ZPE) + E(vib) + E(rot) + E(trans)
    E(el)   - is the total energy from the electronic structure calculation
              = E(kin-el) + E(nuc-el) + E(el-el) + E(nuc-nuc)
    E(ZPE)  - the the zero temperature vibrational energy from the frequency calculation
    E(vib)  - the the finite temperature correction to E(ZPE) due to population
              of excited vibrational states
    E(rot)  - is the rotational thermal energy
    E(trans)- is the translational thermal energy

Summary of contributions to the inner energy U:
Electronic energy                ...   -440.62896549 Eh
Zero point energy                ...      0.00096462 Eh       0.61 kcal/mol
Thermal vibrational correction   ...      0.00198032 Eh       1.24 kcal/mol
Thermal rotational correction    ...      0.00141627 Eh       0.89 kcal/mol
Thermal translational correction ...      0.00141627 Eh       0.89 kcal/mol
-----------------------------------------------------------------------
Total thermal energy                   -440.62318801 Eh

Summary of corrections to the electronic energy:
(perhaps to be used in another calculation)
Total thermal correction                  0.00481286 Eh       3.02 kcal/mol
Non-thermal (ZPE) correction              0.00096462 Eh       0.61 kcal/mol
-----------------------------------------------------------------------
Total correction                          0.00577748 Eh       3.63 kcal/mol

--------
ENTHALPY
--------

The enthalpy is H = U + kB*T
                kB is Boltzmann's constant
Total free energy                 ...   -440.62318801 Eh
Thermal Enthalpy correction       ...      0.00094421 Eh       0.59 kcal/mol
-----------------------------------------------------------------------
Total Enthalpy                    ...   -440.62224380 Eh

Note: Rotational entropy computed according to Herzberg
Infrared and Raman Spectra, Chapter V,1, Van Nostrand Reinhold, 1945
Point Group:  C2v, Symmetry Number:   2
Rotational constants in cm-1:     0.043709     0.043618     0.021832

Vibrational entropy computed according to the QRRHO of S. Grimme
Chem.Eur.J. 2012 18 9955

-------
ENTROPY
-------

The entropy contributions are T*S = T*(S(el)+S(vib)+S(rot)+S(trans))
     S(el)   - electronic entropy
     S(vib)  - vibrational entropy
     S(rot)  - rotational entropy
     S(trans)- translational entropy
The entropies will be listed as mutliplied by the temperature to get
units of energy

Electronic entropy                ...      0.00000000 Eh      0.00 kcal/mol
Vibrational entropy               ...      0.00390081 Eh      2.45 kcal/mol
Rotational entropy                ...      0.01361827 Eh      8.55 kcal/mol
Translational entropy             ...      0.02053447 Eh     12.89 kcal/mol
-----------------------------------------------------------------------
Final entropy term                ...      0.03805355 Eh     23.88 kcal/mol

In case the symmetry of your molecule has not been determined correctly
or in case you have a reason to use a different symmetry number we print
out the resulting rotational entropy values for sn=1,12 :
 --------------------------------------------------------
|  sn= 1 | S(rot)=       0.01427273 Eh      8.96 kcal/mol|
|  sn= 2 | S(rot)=       0.01361827 Eh      8.55 kcal/mol|
|  sn= 3 | S(rot)=       0.01323544 Eh      8.31 kcal/mol|
|  sn= 4 | S(rot)=       0.01296382 Eh      8.13 kcal/mol|
|  sn= 5 | S(rot)=       0.01275313 Eh      8.00 kcal/mol|
|  sn= 6 | S(rot)=       0.01258099 Eh      7.89 kcal/mol|
|  sn= 7 | S(rot)=       0.01243544 Eh      7.80 kcal/mol|
|  sn= 8 | S(rot)=       0.01230936 Eh      7.72 kcal/mol|
|  sn= 9 | S(rot)=       0.01219815 Eh      7.65 kcal/mol|
|  sn=10 | S(rot)=       0.01209867 Eh      7.59 kcal/mol|
|  sn=11 | S(rot)=       0.01200868 Eh      7.54 kcal/mol|
|  sn=12 | S(rot)=       0.01192653 Eh      7.48 kcal/mol|
 --------------------------------------------------------

-------------------
GIBBS FREE ENERGY
-------------------

The Gibbs free energy is G = H - T*S

Total enthalpy                    ...   -440.62224380 Eh
Total entropy correction          ...     -0.03805355 Eh    -23.88 kcal/mol
-----------------------------------------------------------------------
Final Gibbs free energy         ...   -440.66029735 Eh

For completeness - the Gibbs free energy minus the electronic energy
G-E(el)                           ...     -0.03133186 Eh    -19.66 kcal/mol

                             ****ORCA TERMINATED NORMALLY****
TOTAL RUN TIME: 0 days 0 hours 2 minutes 39 seconds 769 msec
