                         Program Version 4.2.0 -  RELEASE  -
|  1> #
|  2> # Ag03C1_LIN TPSSh-D3BJ/Def2-TZVPPD
|  3> #
|  4> ! tpssh d3bj def2-tzvppd def2/jk grid4 nofinalgrid opt xyzfile numfreq
|  5>
|  6> *xyz 1 1
|  7> Ag       0.000000    0.000000    0.000000
|  8> Ag       0.000000    0.000000    2.629319
|  9> Ag       0.000000    0.000000   -2.629319
| 10> *
| 11>
| 12> %maxcore 5000
| 13>
| 14> %pal
| 15> nprocs = 24
| 16> end
| 17>
| 18>
| 19>                          ****END OF INPUT****
 Total Charge           Charge          ....    1
 Multiplicity           Mult            ....    1
 Number of Electrons    NEL             ....   56
Dispersion correction           -0.004275499
FINAL SINGLE POINT ENERGY      -440.576468445378
Dispersion correction            ... done
Dispersion correction           -0.004273295
FINAL SINGLE POINT ENERGY      -440.576485739456
Dispersion correction            ... done
Dispersion correction           -0.004244017
FINAL SINGLE POINT ENERGY      -440.576612592180
Dispersion correction            ... done
Dispersion correction           -0.004242220
FINAL SINGLE POINT ENERGY      -440.576614050398
Dispersion correction            ... done
                    ***********************HURRAY********************

CARTESIAN COORDINATES (ANGSTROEM)
---------------------------------
  Ag    -0.000000    0.000000    0.000000
  Ag     0.000000   -0.000000    2.658879
  Ag     0.000000   -0.000000   -2.658879

 Multiplicity           Mult            ....    1
 Number of Electrons    NEL             ....   56
 Basis Dimension        Dim             ....  168

ORBITAL ENERGIES
----------------

  NO   OCC          E(Eh)            E(eV)
   0   2.0000      -3.863245      -105.1242
   1   2.0000      -3.863242      -105.1242
   2   2.0000      -3.830157      -104.2239
   3   2.0000      -2.471443       -67.2514
   4   2.0000      -2.471189       -67.2445
   5   2.0000      -2.468659       -67.1756
   6   2.0000      -2.468659       -67.1756
   7   2.0000      -2.468654       -67.1755
   8   2.0000      -2.468654       -67.1755
   9   2.0000      -2.439664       -66.3866
  10   2.0000      -2.432726       -66.1978
  11   2.0000      -2.432726       -66.1978
  12   2.0000      -0.529380       -14.4052
  13   2.0000      -0.506147       -13.7729
  14   2.0000      -0.506147       -13.7729
  15   2.0000      -0.499547       -13.5934
  16   2.0000      -0.496285       -13.5046
  17   2.0000      -0.496285       -13.5046
  18   2.0000      -0.492410       -13.3992
  19   2.0000      -0.492407       -13.3991
  20   2.0000      -0.492025       -13.3887
  21   2.0000      -0.492022       -13.3886
  22   2.0000      -0.453851       -12.3499
  23   2.0000      -0.453848       -12.3498
  24   2.0000      -0.452678       -12.3180
  25   2.0000      -0.452678       -12.3180
  26   2.0000      -0.448181       -12.1956
  27   2.0000      -0.375841       -10.2272
  28   0.0000      -0.327100        -8.9008
  29   0.0000      -0.235283        -6.4024
  30   0.0000      -0.183241        -4.9862
  31   0.0000      -0.183241        -4.9862
  32   0.0000      -0.161729        -4.4009

MULLIKEN ATOMIC CHARGES
-----------------------
   0 Ag:   -0.057350
   1 Ag:    0.528675
   2 Ag:    0.528674
Sum of atomic charges:    1.0000000

LOEWDIN ATOMIC CHARGES
----------------------
   0 Ag:    0.136709
   1 Ag:    0.431646
   2 Ag:    0.431645

  Mayer bond orders larger than 0.100000
B(  0-Ag,  1-Ag) :   0.5884 B(  0-Ag,  2-Ag) :   0.5884 B(  1-Ag,  2-Ag) :   0.2744

Dispersion correction           -0.004242096
FINAL SINGLE POINT ENERGY      -440.576614122538

DIPOLE MOMENT
-------------
                                X             Y             Z
Electronic contribution:      0.00000      -0.00000       0.00000
Nuclear contribution   :     -0.00000      -0.00000       0.00000
                        -----------------------------------------
Total Dipole Moment    :      0.00000      -0.00000       0.00000
                        -----------------------------------------
Magnitude (a.u.)       :      0.00000
Magnitude (Debye)      :      0.00001

VIBRATIONAL FREQUENCIES
-----------------------

Scaling factor for frequencies =  1.000000000 (already applied!)

   0:         0.00 cm**-1
   1:         0.00 cm**-1
   2:         0.00 cm**-1
   3:         0.00 cm**-1
   4:         0.00 cm**-1
   5:       -41.94 cm**-1 ***imaginary mode***
   6:       -41.93 cm**-1 ***imaginary mode***
   7:        99.33 cm**-1
   8:       167.80 cm**-1

IR SPECTRUM
-----------

 Mode    freq (cm**-1)   T**2         TX         TY         TZ
-------------------------------------------------------------------
   7:        99.33    0.000067  (  0.000040  -0.000044   0.008206)
   8:       167.80   15.153864  ( -0.000010   0.000012  -3.892796)

--------------------------
THERMOCHEMISTRY AT 298.15K
--------------------------

Temperature         ... 298.15 K
Pressure            ... 1.00 atm
Total Mass          ... 323.61 AMU
The molecule is recognized as being linear

Throughout the following assumptions are being made:
  (1) The electronic state is orbitally nondegenerate
  (2) There are no thermally accessible electronically excited states
  (3) Hindered rotations indicated by low frequency modes are not
      treated as such but are treated as vibrations and this may
      cause some error
  (4) All equations used are the standard statistical mechanics
      equations for an ideal gas
  (5) All vibrations are strictly harmonic

freq.      99.33  E(vib)   ...       0.46
freq.     167.80  E(vib)   ...       0.38

------------
INNER ENERGY
------------

The inner energy is: U= E(el) + E(ZPE) + E(vib) + E(rot) + E(trans)
    E(el)   - is the total energy from the electronic structure calculation
              = E(kin-el) + E(nuc-el) + E(el-el) + E(nuc-nuc)
    E(ZPE)  - the the zero temperature vibrational energy from the frequency calculation
    E(vib)  - the the finite temperature correction to E(ZPE) due to population
              of excited vibrational states
    E(rot)  - is the rotational thermal energy
    E(trans)- is the translational thermal energy

Summary of contributions to the inner energy U:
Electronic energy                ...   -440.57661412 Eh
Zero point energy                ...      0.00060856 Eh       0.38 kcal/mol
Thermal vibrational correction   ...      0.00134890 Eh       0.85 kcal/mol
Thermal rotational correction    ...      0.00094418 Eh       0.59 kcal/mol
Thermal translational correction ...      0.00141627 Eh       0.89 kcal/mol
-----------------------------------------------------------------------
Total thermal energy                   -440.57229621 Eh

Summary of corrections to the electronic energy:
(perhaps to be used in another calculation)
Total thermal correction                  0.00370935 Eh       2.33 kcal/mol
Non-thermal (ZPE) correction              0.00060856 Eh       0.38 kcal/mol
-----------------------------------------------------------------------
Total correction                          0.00431791 Eh       2.71 kcal/mol

--------
ENTHALPY
--------

The enthalpy is H = U + kB*T
                kB is Boltzmann's constant
Total free energy                 ...   -440.57229621 Eh
Thermal Enthalpy correction       ...      0.00094421 Eh       0.59 kcal/mol
-----------------------------------------------------------------------
Total Enthalpy                    ...   -440.57135200 Eh

Note: Rotational entropy computed according to Herzberg
Infrared and Raman Spectra, Chapter V,1, Van Nostrand Reinhold, 1945
Point Group:  Dinfh, Symmetry Number:   2
Rotational constants in cm-1:     0.000000     0.011053     0.011053

Vibrational entropy computed according to the QRRHO of S. Grimme
Chem.Eur.J. 2012 18 9955

-------
ENTROPY
-------

The entropy contributions are T*S = T*(S(el)+S(vib)+S(rot)+S(trans))
     S(el)   - electronic entropy
     S(vib)  - vibrational entropy
     S(rot)  - rotational entropy
     S(trans)- translational entropy
The entropies will be listed as mutliplied by the temperature to get
units of energy

Electronic entropy                ...      0.00000000 Eh      0.00 kcal/mol
Vibrational entropy               ...      0.00266421 Eh      1.67 kcal/mol
Rotational entropy                ...      0.00957942 Eh      6.01 kcal/mol
Translational entropy             ...      0.02053447 Eh     12.89 kcal/mol
-----------------------------------------------------------------------
Final entropy term                ...      0.03277810 Eh     20.57 kcal/mol

In case the symmetry of your molecule has not been determined correctly
or in case you have a reason to use a different symmetry number we print
out the resulting rotational entropy values for sn=1,12 :
 --------------------------------------------------------
|  sn= 1 | S(rot)=      -0.00211419 Eh     -1.33 kcal/mol|
|  sn= 2 | S(rot)=      -0.00276865 Eh     -1.74 kcal/mol|
|  sn= 3 | S(rot)=      -0.00315148 Eh     -1.98 kcal/mol|
|  sn= 4 | S(rot)=      -0.00342311 Eh     -2.15 kcal/mol|
|  sn= 5 | S(rot)=      -0.00363379 Eh     -2.28 kcal/mol|
|  sn= 6 | S(rot)=      -0.00380594 Eh     -2.39 kcal/mol|
|  sn= 7 | S(rot)=      -0.00395148 Eh     -2.48 kcal/mol|
|  sn= 8 | S(rot)=      -0.00407756 Eh     -2.56 kcal/mol|
|  sn= 9 | S(rot)=      -0.00418877 Eh     -2.63 kcal/mol|
|  sn=10 | S(rot)=      -0.00428825 Eh     -2.69 kcal/mol|
|  sn=11 | S(rot)=      -0.00437824 Eh     -2.75 kcal/mol|
|  sn=12 | S(rot)=      -0.00446039 Eh     -2.80 kcal/mol|
 --------------------------------------------------------

-------------------
GIBBS FREE ENERGY
-------------------

The Gibbs free energy is G = H - T*S

Total enthalpy                    ...   -440.57135200 Eh
Total entropy correction          ...     -0.03277810 Eh    -20.57 kcal/mol
-----------------------------------------------------------------------
Final Gibbs free energy         ...   -440.60413010 Eh

For completeness - the Gibbs free energy minus the electronic energy
G-E(el)                           ...     -0.02751597 Eh    -17.27 kcal/mol

                             ****ORCA TERMINATED NORMALLY****
TOTAL RUN TIME: 0 days 0 hours 2 minutes 14 seconds 53 msec
