                         Program Version 4.2.0 -  RELEASE  -
|  1> #
|  2> # Ag03N0_D3H TPSSh-D3BJ/Def2-TZVPPD
|  3> #
|  4> ! tpssh d3bj def2-tzvppd def2/jk grid4 nofinalgrid opt xyzfile numfreq
|  5>
|  6> *xyz 0 2
|  7> Ag       0.000000    1.533951   -0.000000
|  8> Ag       1.328441   -0.766976    0.000000
|  9> Ag      -1.328441   -0.766976   -0.000000
| 10> *
| 11>
| 12> %maxcore 5000
| 13>
| 14> %pal
| 15> nprocs = 24
| 16> end
| 17>
| 18>
| 19>                          ****END OF INPUT****
 Total Charge           Charge          ....    0
 Multiplicity           Mult            ....    2
 Number of Electrons    NEL             ....   57
Dispersion correction           -0.005489697
FINAL SINGLE POINT ENERGY      -440.832315355487
Dispersion correction            ... done
Dispersion correction           -0.005489200
FINAL SINGLE POINT ENERGY      -440.832572128200
Dispersion correction            ... done
Dispersion correction           -0.005481258
FINAL SINGLE POINT ENERGY      -440.834360263552
Dispersion correction            ... done
FINAL SINGLE POINT ENERGY      -440.834395507457
FINAL SINGLE POINT ENERGY      -440.834404255322
FINAL SINGLE POINT ENERGY      -440.834432774886
Dispersion correction            ... done
Dispersion correction           -0.005476302
FINAL SINGLE POINT ENERGY      -440.834442626702
Dispersion correction            ... done
Dispersion correction           -0.005476213
FINAL SINGLE POINT ENERGY      -440.834444451623
Dispersion correction            ... done
                    ***********************HURRAY********************

CARTESIAN COORDINATES (ANGSTROEM)
---------------------------------
  Ag    -0.000001    1.632928    0.000000
  Ag     1.289328   -0.816465    0.000000
  Ag    -1.289327   -0.816463    0.000000

 Multiplicity           Mult            ....    2
 Number of Electrons    NEL             ....   57
 Basis Dimension        Dim             ....  168

ORBITAL ENERGIES
----------------
                 SPIN UP ORBITALS
  NO   OCC          E(Eh)            E(eV)
   0   1.0000      -3.676553      -100.0441
   1   1.0000      -3.676060      -100.0307
   2   1.0000      -3.654803       -99.4522
   3   1.0000      -2.286646       -62.2228
   4   1.0000      -2.281237       -62.0756
   5   1.0000      -2.280911       -62.0668
   6   1.0000      -2.280199       -62.0474
   7   1.0000      -2.280008       -62.0422
   8   1.0000      -2.279503       -62.0284
   9   1.0000      -2.260470       -61.5105
  10   1.0000      -2.259899       -61.4950
  11   1.0000      -2.257437       -61.4280
  12   1.0000      -0.349178        -9.5016
  13   1.0000      -0.339094        -9.2272
  14   1.0000      -0.328863        -8.9488
  15   1.0000      -0.319603        -8.6968
  16   1.0000      -0.313581        -8.5330
  17   1.0000      -0.312807        -8.5119
  18   1.0000      -0.304327        -8.2812
  19   1.0000      -0.292650        -7.9634
  20   1.0000      -0.289353        -7.8737
  21   1.0000      -0.287857        -7.8330
  22   1.0000      -0.282165        -7.6781
  23   1.0000      -0.280256        -7.6262
  24   1.0000      -0.278627        -7.5818
  25   1.0000      -0.278309        -7.5732
  26   1.0000      -0.267595        -7.2816
  27   1.0000      -0.237489        -6.4624
  28   1.0000      -0.136221        -3.7068
  29   0.0000      -0.112793        -3.0692
  30   0.0000      -0.045675        -1.2429
  31   0.0000      -0.027664        -0.7528
  32   0.0000      -0.011260        -0.3064
  33   0.0000      -0.009237        -0.2513

                 SPIN DOWN ORBITALS
  NO   OCC          E(Eh)            E(eV)
   0   1.0000      -3.676296      -100.0371
   1   1.0000      -3.675803      -100.0237
   2   1.0000      -3.654523       -99.4446
   3   1.0000      -2.286206       -62.2108
   4   1.0000      -2.281042       -62.0703
   5   1.0000      -2.280602       -62.0583
   6   1.0000      -2.279981       -62.0414
   7   1.0000      -2.279669       -62.0329
   8   1.0000      -2.279481       -62.0278
   9   1.0000      -2.260528       -61.5121
  10   1.0000      -2.259442       -61.4825
  11   1.0000      -2.257185       -61.4211
  12   1.0000      -0.348045        -9.4708
  13   1.0000      -0.336502        -9.1567
  14   1.0000      -0.327717        -8.9176
  15   1.0000      -0.316137        -8.6025
  16   1.0000      -0.310974        -8.4620
  17   1.0000      -0.310886        -8.4596
  18   1.0000      -0.302424        -8.2294
  19   1.0000      -0.291529        -7.9329
  20   1.0000      -0.288861        -7.8603
  21   1.0000      -0.286694        -7.8013
  22   1.0000      -0.277937        -7.5631
  23   1.0000      -0.276394        -7.5211
  24   1.0000      -0.274152        -7.4601
  25   1.0000      -0.273933        -7.4541
  26   1.0000      -0.263439        -7.1685
  27   1.0000      -0.227222        -6.1830
  28   0.0000      -0.106217        -2.8903
  29   0.0000      -0.094595        -2.5741
  30   0.0000      -0.038415        -1.0453
  31   0.0000      -0.014901        -0.4055
  32   0.0000       0.001342         0.0365

MULLIKEN ATOMIC CHARGES AND SPIN POPULATIONS
--------------------------------------------
   0 Ag:   -0.109775    0.601900
   1 Ag:    0.054886    0.199054
   2 Ag:    0.054889    0.199046
Sum of atomic charges         :    0.0000000

LOEWDIN ATOMIC CHARGES AND SPIN POPULATIONS
-------------------------------------------
   0 Ag:   -0.073788    0.498017
   1 Ag:    0.036893    0.250994
   2 Ag:    0.036895    0.250989

  Mayer bond orders larger than 0.100000
B(  0-Ag,  1-Ag) :   0.5302 B(  0-Ag,  2-Ag) :   0.5302 B(  1-Ag,  2-Ag) :   0.7839

Dispersion correction           -0.005476313
FINAL SINGLE POINT ENERGY      -440.834444270427

DIPOLE MOMENT
-------------
                                X             Y             Z
Electronic contribution:     -0.00001      -0.48052      -0.00000
Nuclear contribution   :     -0.00000       0.00000       0.00000
                        -----------------------------------------
Total Dipole Moment    :     -0.00001      -0.48052      -0.00000
                        -----------------------------------------
Magnitude (a.u.)       :      0.48052
Magnitude (Debye)      :      1.22139

VIBRATIONAL FREQUENCIES
-----------------------

Scaling factor for frequencies =  1.000000000 (already applied!)

   0:         0.00 cm**-1
   1:         0.00 cm**-1
   2:         0.00 cm**-1
   3:         0.00 cm**-1
   4:         0.00 cm**-1
   5:         0.00 cm**-1
   6:       -99.15 cm**-1 ***imaginary mode***
   7:       120.46 cm**-1
   8:       185.43 cm**-1

IR SPECTRUM
-----------

 Mode    freq (cm**-1)   T**2         TX         TY         TZ
-------------------------------------------------------------------
   7:       120.46    0.063413  (  0.000054  -0.251820   0.000025)
   8:       185.43    0.292857  ( -0.000078  -0.541163  -0.000010)

--------------------------
THERMOCHEMISTRY AT 298.15K
--------------------------

Temperature         ... 298.15 K
Pressure            ... 1.00 atm
Total Mass          ... 323.61 AMU

Throughout the following assumptions are being made:
  (1) The electronic state is orbitally nondegenerate
      but the spin degeneracy is treated
  (2) There are no thermally accessible electronically excited states
  (3) Hindered rotations indicated by low frequency modes are not
      treated as such but are treated as vibrations and this may
      cause some error
  (4) All equations used are the standard statistical mechanics
      equations for an ideal gas
  (5) All vibrations are strictly harmonic

freq.     120.46  E(vib)   ...       0.44
freq.     185.43  E(vib)   ...       0.37

------------
INNER ENERGY
------------

The inner energy is: U= E(el) + E(ZPE) + E(vib) + E(rot) + E(trans)
    E(el)   - is the total energy from the electronic structure calculation
              = E(kin-el) + E(nuc-el) + E(el-el) + E(nuc-nuc)
    E(ZPE)  - the the zero temperature vibrational energy from the frequency calculation
    E(vib)  - the the finite temperature correction to E(ZPE) due to population
              of excited vibrational states
    E(rot)  - is the rotational thermal energy
    E(trans)- is the translational thermal energy

Summary of contributions to the inner energy U:
Electronic energy                ...   -440.83444427 Eh
Zero point energy                ...      0.00069685 Eh       0.44 kcal/mol
Thermal vibrational correction   ...      0.00128018 Eh       0.80 kcal/mol
Thermal rotational correction    ...      0.00141627 Eh       0.89 kcal/mol
Thermal translational correction ...      0.00141627 Eh       0.89 kcal/mol
-----------------------------------------------------------------------
Total thermal energy                   -440.82963470 Eh

Summary of corrections to the electronic energy:
(perhaps to be used in another calculation)
Total thermal correction                  0.00411272 Eh       2.58 kcal/mol
Non-thermal (ZPE) correction              0.00069685 Eh       0.44 kcal/mol
-----------------------------------------------------------------------
Total correction                          0.00480957 Eh       3.02 kcal/mol

--------
ENTHALPY
--------

The enthalpy is H = U + kB*T
                kB is Boltzmann's constant
Total free energy                 ...   -440.82963470 Eh
Thermal Enthalpy correction       ...      0.00094421 Eh       0.59 kcal/mol
-----------------------------------------------------------------------
Total Enthalpy                    ...   -440.82869049 Eh

Note: Rotational entropy computed according to Herzberg
Infrared and Raman Spectra, Chapter V,1, Van Nostrand Reinhold, 1945
Point Group:  Cs, Symmetry Number:   1
Rotational constants in cm-1:     0.047005     0.039072     0.021337

Vibrational entropy computed according to the QRRHO of S. Grimme
Chem.Eur.J. 2012 18 9955

-------
ENTROPY
-------

The entropy contributions are T*S = T*(S(el)+S(vib)+S(rot)+S(trans))
     S(el)   - electronic entropy
     S(vib)  - vibrational entropy
     S(rot)  - rotational entropy
     S(trans)- translational entropy
The entropies will be listed as mutliplied by the temperature to get
units of energy

Electronic entropy                ...      0.00065446 Eh      0.41 kcal/mol
Vibrational entropy               ...      0.00248379 Eh      1.56 kcal/mol
Rotational entropy                ...      0.01430120 Eh      8.97 kcal/mol
Translational entropy             ...      0.02053447 Eh     12.89 kcal/mol
-----------------------------------------------------------------------
Final entropy term                ...      0.03797391 Eh     23.83 kcal/mol

In case the symmetry of your molecule has not been determined correctly
or in case you have a reason to use a different symmetry number we print
out the resulting rotational entropy values for sn=1,12 :
 --------------------------------------------------------
|  sn= 1 | S(rot)=       0.01430120 Eh      8.97 kcal/mol|
|  sn= 2 | S(rot)=       0.01364674 Eh      8.56 kcal/mol|
|  sn= 3 | S(rot)=       0.01326391 Eh      8.32 kcal/mol|
|  sn= 4 | S(rot)=       0.01299229 Eh      8.15 kcal/mol|
|  sn= 5 | S(rot)=       0.01278160 Eh      8.02 kcal/mol|
|  sn= 6 | S(rot)=       0.01260945 Eh      7.91 kcal/mol|
|  sn= 7 | S(rot)=       0.01246391 Eh      7.82 kcal/mol|
|  sn= 8 | S(rot)=       0.01233783 Eh      7.74 kcal/mol|
|  sn= 9 | S(rot)=       0.01222662 Eh      7.67 kcal/mol|
|  sn=10 | S(rot)=       0.01212714 Eh      7.61 kcal/mol|
|  sn=11 | S(rot)=       0.01203715 Eh      7.55 kcal/mol|
|  sn=12 | S(rot)=       0.01195500 Eh      7.50 kcal/mol|
 --------------------------------------------------------

-------------------
GIBBS FREE ENERGY
-------------------

The Gibbs free energy is G = H - T*S

Total enthalpy                    ...   -440.82869049 Eh
Total entropy correction          ...     -0.03797391 Eh    -23.83 kcal/mol
-----------------------------------------------------------------------
Final Gibbs free energy         ...   -440.86666441 Eh

For completeness - the Gibbs free energy minus the electronic energy
G-E(el)                           ...     -0.03222014 Eh    -20.22 kcal/mol

                             ****ORCA TERMINATED NORMALLY****
TOTAL RUN TIME: 0 days 0 hours 4 minutes 5 seconds 289 msec
