                         Program Version 4.2.0 -  RELEASE  -
|  1> #
|  2> # Ag03N0_LIN TPSSh-D3BJ/Def2-TZVPPD
|  3> #
|  4> ! tpssh d3bj def2-tzvppd def2/jk grid4 nofinalgrid opt xyzfile numfreq
|  5>
|  6> *xyz 0 2
|  7> Ag       0.000000    0.000000    0.000000
|  8> Ag       0.000000    0.000000    2.592532
|  9> Ag       0.000000    0.000000   -2.592532
| 10> *
| 11>
| 12> %maxcore 5000
| 13>
| 14> %pal
| 15> nprocs = 24
| 16> end
| 17>
| 18>
| 19>                          ****END OF INPUT****
 Total Charge           Charge          ....    0
 Multiplicity           Mult            ....    2
 Number of Electrons    NEL             ....   57
Dispersion correction           -0.004319753
FINAL SINGLE POINT ENERGY      -440.830194081840
Dispersion correction            ... done
Dispersion correction           -0.004317255
FINAL SINGLE POINT ENERGY      -440.830215866604
Dispersion correction            ... done
Dispersion correction           -0.004287385
FINAL SINGLE POINT ENERGY      -440.830352672657
Dispersion correction            ... done
Dispersion correction           -0.004285369
FINAL SINGLE POINT ENERGY      -440.830353693447
Dispersion correction            ... done
                    ***********************HURRAY********************

CARTESIAN COORDINATES (ANGSTROEM)
---------------------------------
  Ag     0.000000    0.000000    0.000000
  Ag    -0.000000   -0.000000    2.621013
  Ag    -0.000000   -0.000000   -2.621013

 Multiplicity           Mult            ....    2
 Number of Electrons    NEL             ....   57
 Basis Dimension        Dim             ....  168

ORBITAL ENERGIES
----------------
                 SPIN UP ORBITALS
  NO   OCC          E(Eh)            E(eV)
   0   1.0000      -3.666947       -99.7827
   1   1.0000      -3.666942       -99.7826
   2   1.0000      -3.654545       -99.4452
   3   1.0000      -2.275377       -61.9162
   4   1.0000      -2.274507       -61.8925
   5   1.0000      -2.271018       -61.7976
   6   1.0000      -2.271018       -61.7976
   7   1.0000      -2.271013       -61.7974
   8   1.0000      -2.271013       -61.7974
   9   1.0000      -2.261752       -61.5454
  10   1.0000      -2.257570       -61.4316
  11   1.0000      -2.257570       -61.4316
  12   1.0000      -0.343772        -9.3545
  13   1.0000      -0.318651        -8.6709
  14   1.0000      -0.318651        -8.6709
  15   1.0000      -0.305149        -8.3035
  16   1.0000      -0.302154        -8.2220
  17   1.0000      -0.302154        -8.2220
  18   1.0000      -0.298400        -8.1199
  19   1.0000      -0.298397        -8.1198
  20   1.0000      -0.297286        -8.0896
  21   1.0000      -0.297283        -8.0895
  22   1.0000      -0.278635        -7.5821
  23   1.0000      -0.278632        -7.5820
  24   1.0000      -0.268383        -7.3031
  25   1.0000      -0.268383        -7.3031
  26   1.0000      -0.262822        -7.1518
  27   1.0000      -0.213508        -5.8098
  28   1.0000      -0.181525        -4.9395
  29   0.0000      -0.081421        -2.2156
  30   0.0000      -0.037182        -1.0118
  31   0.0000      -0.037182        -1.0118
  32   0.0000      -0.014901        -0.4055
  33   0.0000      -0.003238        -0.0881

                 SPIN DOWN ORBITALS
  NO   OCC          E(Eh)            E(eV)
   0   1.0000      -3.666953       -99.7829
   1   1.0000      -3.666948       -99.7827
   2   1.0000      -3.654703       -99.4495
   3   1.0000      -2.275041       -61.9070
   4   1.0000      -2.274177       -61.8835
   5   1.0000      -2.271295       -61.8051
   6   1.0000      -2.271295       -61.8051
   7   1.0000      -2.271286       -61.8048
   8   1.0000      -2.271286       -61.8048
   9   1.0000      -2.261640       -61.5424
  10   1.0000      -2.257899       -61.4406
  11   1.0000      -2.257899       -61.4406
  12   1.0000      -0.340083        -9.2541
  13   1.0000      -0.315355        -8.5813
  14   1.0000      -0.315355        -8.5813
  15   1.0000      -0.301576        -8.2063
  16   1.0000      -0.298094        -8.1116
  17   1.0000      -0.298094        -8.1116
  18   1.0000      -0.294214        -8.0060
  19   1.0000      -0.294210        -8.0059
  20   1.0000      -0.292826        -7.9682
  21   1.0000      -0.292823        -7.9681
  22   1.0000      -0.278967        -7.5911
  23   1.0000      -0.278963        -7.5910
  24   1.0000      -0.267414        -7.2767
  25   1.0000      -0.267414        -7.2767
  26   1.0000      -0.259501        -7.0614
  27   1.0000      -0.199480        -5.4281
  28   0.0000      -0.144726        -3.9382
  29   0.0000      -0.068155        -1.8546
  30   0.0000      -0.027729        -0.7546
  31   0.0000      -0.027729        -0.7546
  32   0.0000      -0.001380        -0.0375

MULLIKEN ATOMIC CHARGES AND SPIN POPULATIONS
--------------------------------------------
   0 Ag:   -0.037512   -0.092473
   1 Ag:    0.018757    0.546236
   2 Ag:    0.018756    0.546236
Sum of atomic charges         :   -0.0000000

LOEWDIN ATOMIC CHARGES AND SPIN POPULATIONS
-------------------------------------------
   0 Ag:   -0.179931    0.288755
   1 Ag:    0.089966    0.355623
   2 Ag:    0.089966    0.355623

  Mayer bond orders larger than 0.100000
B(  0-Ag,  1-Ag) :   0.5938 B(  0-Ag,  2-Ag) :   0.5938 B(  1-Ag,  2-Ag) :   0.2027

Dispersion correction           -0.004285242
FINAL SINGLE POINT ENERGY      -440.830353731835

DIPOLE MOMENT
-------------
                                X             Y             Z
Electronic contribution:      0.00000      -0.00000      -0.00000
Nuclear contribution   :     -0.00000      -0.00000       0.00000
                        -----------------------------------------
Total Dipole Moment    :      0.00000      -0.00000      -0.00000
                        -----------------------------------------
Magnitude (a.u.)       :      0.00000
Magnitude (Debye)      :      0.00000

VIBRATIONAL FREQUENCIES
-----------------------

Scaling factor for frequencies =  1.000000000 (already applied!)

   0:         0.00 cm**-1
   1:         0.00 cm**-1
   2:         0.00 cm**-1
   3:         0.00 cm**-1
   4:         0.00 cm**-1
   5:       -11.83 cm**-1 ***imaginary mode***
   6:       -11.79 cm**-1 ***imaginary mode***
   7:       111.92 cm**-1
   8:       180.73 cm**-1

IR SPECTRUM
-----------

 Mode    freq (cm**-1)   T**2         TX         TY         TZ
-------------------------------------------------------------------
   7:       111.92    0.000000  (  0.000018  -0.000009  -0.000000)
   8:       180.73    1.332714  (  0.000010   0.000022   1.154432)

--------------------------
THERMOCHEMISTRY AT 298.15K
--------------------------

Temperature         ... 298.15 K
Pressure            ... 1.00 atm
Total Mass          ... 323.61 AMU
The molecule is recognized as being linear

Throughout the following assumptions are being made:
  (1) The electronic state is orbitally nondegenerate
      but the spin degeneracy is treated
  (2) There are no thermally accessible electronically excited states
  (3) Hindered rotations indicated by low frequency modes are not
      treated as such but are treated as vibrations and this may
      cause some error
  (4) All equations used are the standard statistical mechanics
      equations for an ideal gas
  (5) All vibrations are strictly harmonic

freq.     111.92  E(vib)   ...       0.45
freq.     180.73  E(vib)   ...       0.37

------------
INNER ENERGY
------------

The inner energy is: U= E(el) + E(ZPE) + E(vib) + E(rot) + E(trans)
    E(el)   - is the total energy from the electronic structure calculation
              = E(kin-el) + E(nuc-el) + E(el-el) + E(nuc-nuc)
    E(ZPE)  - the the zero temperature vibrational energy from the frequency calculation
    E(vib)  - the the finite temperature correction to E(ZPE) due to population
              of excited vibrational states
    E(rot)  - is the rotational thermal energy
    E(trans)- is the translational thermal energy

Summary of contributions to the inner energy U:
Electronic energy                ...   -440.83035373 Eh
Zero point energy                ...      0.00066671 Eh       0.42 kcal/mol
Thermal vibrational correction   ...      0.00130365 Eh       0.82 kcal/mol
Thermal rotational correction    ...      0.00094418 Eh       0.59 kcal/mol
Thermal translational correction ...      0.00141627 Eh       0.89 kcal/mol
-----------------------------------------------------------------------
Total thermal energy                   -440.82602292 Eh

Summary of corrections to the electronic energy:
(perhaps to be used in another calculation)
Total thermal correction                  0.00366411 Eh       2.30 kcal/mol
Non-thermal (ZPE) correction              0.00066671 Eh       0.42 kcal/mol
-----------------------------------------------------------------------
Total correction                          0.00433081 Eh       2.72 kcal/mol

--------
ENTHALPY
--------

The enthalpy is H = U + kB*T
                kB is Boltzmann's constant
Total free energy                 ...   -440.82602292 Eh
Thermal Enthalpy correction       ...      0.00094421 Eh       0.59 kcal/mol
-----------------------------------------------------------------------
Total Enthalpy                    ...   -440.82507871 Eh

Note: Rotational entropy computed according to Herzberg
Infrared and Raman Spectra, Chapter V,1, Van Nostrand Reinhold, 1945
Point Group:  Dinfh, Symmetry Number:   2
Rotational constants in cm-1:     0.000000     0.011374     0.011374

Vibrational entropy computed according to the QRRHO of S. Grimme
Chem.Eur.J. 2012 18 9955

-------
ENTROPY
-------

The entropy contributions are T*S = T*(S(el)+S(vib)+S(rot)+S(trans))
     S(el)   - electronic entropy
     S(vib)  - vibrational entropy
     S(rot)  - rotational entropy
     S(trans)- translational entropy
The entropies will be listed as mutliplied by the temperature to get
units of energy

Electronic entropy                ...      0.00065446 Eh      0.41 kcal/mol
Vibrational entropy               ...      0.00254677 Eh      1.60 kcal/mol
Rotational entropy                ...      0.00955233 Eh      5.99 kcal/mol
Translational entropy             ...      0.02053447 Eh     12.89 kcal/mol
-----------------------------------------------------------------------
Final entropy term                ...      0.03328802 Eh     20.89 kcal/mol

In case the symmetry of your molecule has not been determined correctly
or in case you have a reason to use a different symmetry number we print
out the resulting rotational entropy values for sn=1,12 :
 --------------------------------------------------------
|  sn= 1 | S(rot)=      -0.00187842 Eh     -1.18 kcal/mol|
|  sn= 2 | S(rot)=      -0.00253288 Eh     -1.59 kcal/mol|
|  sn= 3 | S(rot)=      -0.00291571 Eh     -1.83 kcal/mol|
|  sn= 4 | S(rot)=      -0.00318733 Eh     -2.00 kcal/mol|
|  sn= 5 | S(rot)=      -0.00339802 Eh     -2.13 kcal/mol|
|  sn= 6 | S(rot)=      -0.00357017 Eh     -2.24 kcal/mol|
|  sn= 7 | S(rot)=      -0.00371571 Eh     -2.33 kcal/mol|
|  sn= 8 | S(rot)=      -0.00384179 Eh     -2.41 kcal/mol|
|  sn= 9 | S(rot)=      -0.00395300 Eh     -2.48 kcal/mol|
|  sn=10 | S(rot)=      -0.00405248 Eh     -2.54 kcal/mol|
|  sn=11 | S(rot)=      -0.00414247 Eh     -2.60 kcal/mol|
|  sn=12 | S(rot)=      -0.00422462 Eh     -2.65 kcal/mol|
 --------------------------------------------------------

-------------------
GIBBS FREE ENERGY
-------------------

The Gibbs free energy is G = H - T*S

Total enthalpy                    ...   -440.82507871 Eh
Total entropy correction          ...     -0.03328802 Eh    -20.89 kcal/mol
-----------------------------------------------------------------------
Final Gibbs free energy         ...   -440.85836673 Eh

For completeness - the Gibbs free energy minus the electronic energy
G-E(el)                           ...     -0.02801300 Eh    -17.58 kcal/mol

                             ****ORCA TERMINATED NORMALLY****
TOTAL RUN TIME: 0 days 0 hours 2 minutes 22 seconds 960 msec
