                         Program Version 4.2.0 -  RELEASE  -
|  1> #
|  2> # Au01N0_F TPSSh-D3BJ/Def2-TZVPPD
|  3> #
|  4> ! tpssh d3bj def2-tzvppd def2/jk grid4 nofinalgrid opt xyzfile numfreq
|  5>
|  6> *xyz 0 1
|  7> Au       0.000000    0.000000    0.196853
|  8> F        0.000000    0.000000   -1.727931
|  9> *
| 10>
| 11> %maxcore 5000
| 12>
| 13> %pal
| 14> nprocs = 24
| 15> end
| 16>
| 17>
| 18>                          ****END OF INPUT****
 Total Charge           Charge          ....    0
 Multiplicity           Mult            ....    1
 Number of Electrons    NEL             ....   28
Dispersion correction           -0.000602518
FINAL SINGLE POINT ENERGY      -235.540311343792
Dispersion correction            ... done
Dispersion correction           -0.000602371
FINAL SINGLE POINT ENERGY      -235.540314536178
Dispersion correction            ... done
Dispersion correction           -0.000602439
FINAL SINGLE POINT ENERGY      -235.540353774611
Dispersion correction            ... done
                    ***********************HURRAY********************

CARTESIAN COORDINATES (ANGSTROEM)
---------------------------------
  Au     0.000000    0.000000    0.202400
  F      0.000000    0.000000   -1.733478

 Multiplicity           Mult            ....    1
 Number of Electrons    NEL             ....   28
 Basis Dimension        Dim             ....   99

ORBITAL ENERGIES
----------------

  NO   OCC          E(Eh)            E(eV)
   0   2.0000     -24.551547      -668.0816
   1   2.0000      -4.126844      -112.2971
   2   2.0000      -2.331526       -63.4441
   3   2.0000      -2.311430       -62.8972
   4   2.0000      -2.311430       -62.8972
   5   2.0000      -1.076569       -29.2949
   6   2.0000      -0.425581       -11.5806
   7   2.0000      -0.375461       -10.2168
   8   2.0000      -0.375461       -10.2168
   9   2.0000      -0.310711        -8.4549
  10   2.0000      -0.310710        -8.4549
  11   2.0000      -0.286057        -7.7840
  12   2.0000      -0.286057        -7.7840
  13   2.0000      -0.277833        -7.5602
  14   0.0000      -0.163060        -4.4371
  15   0.0000      -0.009600        -0.2612
  16   0.0000      -0.009600        -0.2612
  17   0.0000       0.030759         0.8370
  18   0.0000       0.088491         2.4080

MULLIKEN ATOMIC CHARGES
-----------------------
   0 Au:    0.436984
   1 F :   -0.436984
Sum of atomic charges:    0.0000000

LOEWDIN ATOMIC CHARGES
----------------------
   0 Au:    0.595354
   1 F :   -0.595354

  Mayer bond orders larger than 0.100000
B(  0-Au,  1-F ) :   0.8581

Dispersion correction           -0.000602441
FINAL SINGLE POINT ENERGY      -235.540353840435

DIPOLE MOMENT
-------------
                                X             Y             Z
Electronic contribution:      0.00000      -0.00000      25.50013
Nuclear contribution   :      0.00000       0.00000     -23.91378
                        -----------------------------------------
Total Dipole Moment    :      0.00000      -0.00000       1.58634
                        -----------------------------------------
Magnitude (a.u.)       :      1.58634
Magnitude (Debye)      :      4.03217

VIBRATIONAL FREQUENCIES
-----------------------

Scaling factor for frequencies =  1.000000000 (already applied!)

   0:         0.00 cm**-1
   1:         0.00 cm**-1
   2:         0.00 cm**-1
   3:         0.00 cm**-1
   4:         0.00 cm**-1
   5:       542.94 cm**-1

IR SPECTRUM
-----------

 Mode    freq (cm**-1)   T**2         TX         TY         TZ
-------------------------------------------------------------------
   5:       542.94   43.017877  (  0.000009  -0.000010   6.558801)

--------------------------
THERMOCHEMISTRY AT 298.15K
--------------------------

Temperature         ... 298.15 K
Pressure            ... 1.00 atm
Total Mass          ... 215.96 AMU
The molecule is recognized as being linear

Throughout the following assumptions are being made:
  (1) The electronic state is orbitally nondegenerate
  (2) There are no thermally accessible electronically excited states
  (3) Hindered rotations indicated by low frequency modes are not
      treated as such but are treated as vibrations and this may
      cause some error
  (4) All equations used are the standard statistical mechanics
      equations for an ideal gas
  (5) All vibrations are strictly harmonic

freq.     542.94  E(vib)   ...       0.12

------------
INNER ENERGY
------------

The inner energy is: U= E(el) + E(ZPE) + E(vib) + E(rot) + E(trans)
    E(el)   - is the total energy from the electronic structure calculation
              = E(kin-el) + E(nuc-el) + E(el-el) + E(nuc-nuc)
    E(ZPE)  - the the zero temperature vibrational energy from the frequency calculation
    E(vib)  - the the finite temperature correction to E(ZPE) due to population
              of excited vibrational states
    E(rot)  - is the rotational thermal energy
    E(trans)- is the translational thermal energy

Summary of contributions to the inner energy U:
Electronic energy                ...   -235.54035384 Eh
Zero point energy                ...      0.00123691 Eh       0.78 kcal/mol
Thermal vibrational correction   ...      0.00019425 Eh       0.12 kcal/mol
Thermal rotational correction    ...      0.00094418 Eh       0.59 kcal/mol
Thermal translational correction ...      0.00141627 Eh       0.89 kcal/mol
-----------------------------------------------------------------------
Total thermal energy                   -235.53656224 Eh

Summary of corrections to the electronic energy:
(perhaps to be used in another calculation)
Total thermal correction                  0.00255470 Eh       1.60 kcal/mol
Non-thermal (ZPE) correction              0.00123691 Eh       0.78 kcal/mol
-----------------------------------------------------------------------
Total correction                          0.00379160 Eh       2.38 kcal/mol

--------
ENTHALPY
--------

The enthalpy is H = U + kB*T
                kB is Boltzmann's constant
Total free energy                 ...   -235.53656224 Eh
Thermal Enthalpy correction       ...      0.00094421 Eh       0.59 kcal/mol
-----------------------------------------------------------------------
Total Enthalpy                    ...   -235.53561803 Eh

Note: Rotational entropy computed according to Herzberg
Infrared and Raman Spectra, Chapter V,1, Van Nostrand Reinhold, 1945
Point Group:  Cinfv, Symmetry Number:   1
Rotational constants in cm-1:     0.000000     0.259611     0.259611

Vibrational entropy computed according to the QRRHO of S. Grimme
Chem.Eur.J. 2012 18 9955

-------
ENTROPY
-------

The entropy contributions are T*S = T*(S(el)+S(vib)+S(rot)+S(trans))
     S(el)   - electronic entropy
     S(vib)  - vibrational entropy
     S(rot)  - rotational entropy
     S(trans)- translational entropy
The entropies will be listed as mutliplied by the temperature to get
units of energy

Electronic entropy                ...      0.00000000 Eh      0.00 kcal/mol
Vibrational entropy               ...      0.00026595 Eh      0.17 kcal/mol
Rotational entropy                ...      0.00725356 Eh      4.55 kcal/mol
Translational entropy             ...      0.01996169 Eh     12.53 kcal/mol
-----------------------------------------------------------------------
Final entropy term                ...      0.02748120 Eh     17.24 kcal/mol

In case the symmetry of your molecule has not been determined correctly
or in case you have a reason to use a different symmetry number we print
out the resulting rotational entropy values for sn=1,12 :
 --------------------------------------------------------
|  sn= 1 | S(rot)=             -inf Eh      -inf kcal/mol|
|  sn= 2 | S(rot)=             -inf Eh      -inf kcal/mol|
|  sn= 3 | S(rot)=             -inf Eh      -inf kcal/mol|
|  sn= 4 | S(rot)=             -inf Eh      -inf kcal/mol|
|  sn= 5 | S(rot)=             -inf Eh      -inf kcal/mol|
|  sn= 6 | S(rot)=             -inf Eh      -inf kcal/mol|
|  sn= 7 | S(rot)=             -inf Eh      -inf kcal/mol|
|  sn= 8 | S(rot)=             -inf Eh      -inf kcal/mol|
|  sn= 9 | S(rot)=             -inf Eh      -inf kcal/mol|
|  sn=10 | S(rot)=             -inf Eh      -inf kcal/mol|
|  sn=11 | S(rot)=             -inf Eh      -inf kcal/mol|
|  sn=12 | S(rot)=             -inf Eh      -inf kcal/mol|
 --------------------------------------------------------

-------------------
GIBBS FREE ENERGY
-------------------

The Gibbs free energy is G = H - T*S

Total enthalpy                    ...   -235.53561803 Eh
Total entropy correction          ...     -0.02748120 Eh    -17.24 kcal/mol
-----------------------------------------------------------------------
Final Gibbs free energy         ...   -235.56309923 Eh

For completeness - the Gibbs free energy minus the electronic energy
G-E(el)                           ...     -0.02274538 Eh    -14.27 kcal/mol

                             ****ORCA TERMINATED NORMALLY****
TOTAL RUN TIME: 0 days 0 hours 0 minutes 49 seconds 244 msec
