                         Program Version 4.2.0 -  RELEASE  -
|  1> #
|  2> # Au02N0 TPSSh-D3BJ/Def2-TZVPPD
|  3> #
|  4> ! tpssh d3bj def2-tzvppd def2/jk grid4 nofinalgrid opt xyzfile numfreq
|  5>
|  6> *xyz 0 1
|  7> Au       0.000000    0.000000    1.239541
|  8> Au       0.000000    0.000000   -1.239541
|  9> *
| 10>
| 11> %maxcore 5000
| 12>
| 13> %pal
| 14> nprocs = 24
| 15> end
| 16>
| 17>
| 18>                          ****END OF INPUT****
 Total Charge           Charge          ....    0
 Multiplicity           Mult            ....    1
 Number of Electrons    NEL             ....   38
Dispersion correction           -0.001968275
FINAL SINGLE POINT ENERGY      -271.407827382159
Dispersion correction            ... done
Dispersion correction           -0.001961639
FINAL SINGLE POINT ENERGY      -271.405230443106
Dispersion correction            ... done
Dispersion correction           -0.001966229
FINAL SINGLE POINT ENERGY      -271.407966040264
Dispersion correction            ... done
Dispersion correction           -0.001967127
FINAL SINGLE POINT ENERGY      -271.408042181719
Dispersion correction            ... done
Dispersion correction           -0.001966886
FINAL SINGLE POINT ENERGY      -271.408040790425
Dispersion correction            ... done
                    ***********************HURRAY********************

CARTESIAN COORDINATES (ANGSTROEM)
---------------------------------
  Au     0.000000    0.000000    1.256727
  Au     0.000000    0.000000   -1.256727

 Multiplicity           Mult            ....    1
 Number of Electrons    NEL             ....   38
 Basis Dimension        Dim             ....  118

ORBITAL ENERGIES
----------------

  NO   OCC          E(Eh)            E(eV)
   0   2.0000      -4.079903      -111.0198
   1   2.0000      -4.079295      -111.0033
   2   2.0000      -2.283391       -62.1342
   3   2.0000      -2.272839       -61.8471
   4   2.0000      -2.267558       -61.7034
   5   2.0000      -2.267558       -61.7034
   6   2.0000      -2.266566       -61.6764
   7   2.0000      -2.266566       -61.6764
   8   2.0000      -0.348021        -9.4701
   9   2.0000      -0.312315        -8.4985
  10   2.0000      -0.312315        -8.4985
  11   2.0000      -0.277048        -7.5389
  12   2.0000      -0.277037        -7.5386
  13   2.0000      -0.264731        -7.2037
  14   2.0000      -0.264719        -7.2034
  15   2.0000      -0.252542        -6.8720
  16   2.0000      -0.252542        -6.8720
  17   2.0000      -0.248165        -6.7529
  18   2.0000      -0.243935        -6.6378
  19   0.0000      -0.135877        -3.6974
  20   0.0000      -0.025984        -0.7071
  21   0.0000      -0.025984        -0.7071
  22   0.0000      -0.009654        -0.2627
  23   0.0000       0.042086         1.1452

MULLIKEN ATOMIC CHARGES
-----------------------
   0 Au:   -0.000000
   1 Au:    0.000000
Sum of atomic charges:    0.0000000

LOEWDIN ATOMIC CHARGES
----------------------
   0 Au:   -0.000000
   1 Au:    0.000000

  Mayer bond orders larger than 0.100000
B(  0-Au,  1-Au) :   1.1395

Dispersion correction           -0.001966895
FINAL SINGLE POINT ENERGY      -271.408041107695

DIPOLE MOMENT
-------------
                                X             Y             Z
Electronic contribution:     -0.00000       0.00000      -0.00000
Nuclear contribution   :      0.00000       0.00000       0.00000
                        -----------------------------------------
Total Dipole Moment    :     -0.00000       0.00000      -0.00000
                        -----------------------------------------
Magnitude (a.u.)       :      0.00000
Magnitude (Debye)      :      0.00000

VIBRATIONAL FREQUENCIES
-----------------------

Scaling factor for frequencies =  1.000000000 (already applied!)

   0:         0.00 cm**-1
   1:         0.00 cm**-1
   2:         0.00 cm**-1
   3:         0.00 cm**-1
   4:         0.00 cm**-1
   5:       177.08 cm**-1

IR SPECTRUM
-----------

 Mode    freq (cm**-1)   T**2         TX         TY         TZ
-------------------------------------------------------------------
   5:       177.08    0.000000  (  0.000002  -0.000000  -0.000012)

--------------------------
THERMOCHEMISTRY AT 298.15K
--------------------------

Temperature         ... 298.15 K
Pressure            ... 1.00 atm
Total Mass          ... 393.93 AMU
The molecule is recognized as being linear

Throughout the following assumptions are being made:
  (1) The electronic state is orbitally nondegenerate
  (2) There are no thermally accessible electronically excited states
  (3) Hindered rotations indicated by low frequency modes are not
      treated as such but are treated as vibrations and this may
      cause some error
  (4) All equations used are the standard statistical mechanics
      equations for an ideal gas
  (5) All vibrations are strictly harmonic

freq.     177.08  E(vib)   ...       0.37

------------
INNER ENERGY
------------

The inner energy is: U= E(el) + E(ZPE) + E(vib) + E(rot) + E(trans)
    E(el)   - is the total energy from the electronic structure calculation
              = E(kin-el) + E(nuc-el) + E(el-el) + E(nuc-nuc)
    E(ZPE)  - the the zero temperature vibrational energy from the frequency calculation
    E(vib)  - the the finite temperature correction to E(ZPE) due to population
              of excited vibrational states
    E(rot)  - is the rotational thermal energy
    E(trans)- is the translational thermal energy

Summary of contributions to the inner energy U:
Electronic energy                ...   -271.40804111 Eh
Zero point energy                ...      0.00040341 Eh       0.25 kcal/mol
Thermal vibrational correction   ...      0.00059756 Eh       0.37 kcal/mol
Thermal rotational correction    ...      0.00094418 Eh       0.59 kcal/mol
Thermal translational correction ...      0.00141627 Eh       0.89 kcal/mol
-----------------------------------------------------------------------
Total thermal energy                   -271.40467968 Eh

Summary of corrections to the electronic energy:
(perhaps to be used in another calculation)
Total thermal correction                  0.00295802 Eh       1.86 kcal/mol
Non-thermal (ZPE) correction              0.00040341 Eh       0.25 kcal/mol
-----------------------------------------------------------------------
Total correction                          0.00336143 Eh       2.11 kcal/mol

--------
ENTHALPY
--------

The enthalpy is H = U + kB*T
                kB is Boltzmann's constant
Total free energy                 ...   -271.40467968 Eh
Thermal Enthalpy correction       ...      0.00094421 Eh       0.59 kcal/mol
-----------------------------------------------------------------------
Total Enthalpy                    ...   -271.40373547 Eh

Note: Rotational entropy computed according to Herzberg
Infrared and Raman Spectra, Chapter V,1, Van Nostrand Reinhold, 1945
Point Group:  Dinfh, Symmetry Number:   2
Rotational constants in cm-1:     0.000000     0.027095     0.027095

Vibrational entropy computed according to the QRRHO of S. Grimme
Chem.Eur.J. 2012 18 9955

-------
ENTROPY
-------

The entropy contributions are T*S = T*(S(el)+S(vib)+S(rot)+S(trans))
     S(el)   - electronic entropy
     S(vib)  - vibrational entropy
     S(rot)  - rotational entropy
     S(trans)- translational entropy
The entropies will be listed as mutliplied by the temperature to get
units of energy

Electronic entropy                ...      0.00000000 Eh      0.00 kcal/mol
Vibrational entropy               ...      0.00111772 Eh      0.70 kcal/mol
Rotational entropy                ...      0.00873279 Eh      5.48 kcal/mol
Translational entropy             ...      0.02081297 Eh     13.06 kcal/mol
-----------------------------------------------------------------------
Final entropy term                ...      0.03066347 Eh     19.24 kcal/mol

In case the symmetry of your molecule has not been determined correctly
or in case you have a reason to use a different symmetry number we print
out the resulting rotational entropy values for sn=1,12 :
 --------------------------------------------------------
|  sn= 1 | S(rot)=             -inf Eh      -inf kcal/mol|
|  sn= 2 | S(rot)=             -inf Eh      -inf kcal/mol|
|  sn= 3 | S(rot)=             -inf Eh      -inf kcal/mol|
|  sn= 4 | S(rot)=             -inf Eh      -inf kcal/mol|
|  sn= 5 | S(rot)=             -inf Eh      -inf kcal/mol|
|  sn= 6 | S(rot)=             -inf Eh      -inf kcal/mol|
|  sn= 7 | S(rot)=             -inf Eh      -inf kcal/mol|
|  sn= 8 | S(rot)=             -inf Eh      -inf kcal/mol|
|  sn= 9 | S(rot)=             -inf Eh      -inf kcal/mol|
|  sn=10 | S(rot)=             -inf Eh      -inf kcal/mol|
|  sn=11 | S(rot)=             -inf Eh      -inf kcal/mol|
|  sn=12 | S(rot)=             -inf Eh      -inf kcal/mol|
 --------------------------------------------------------

-------------------
GIBBS FREE ENERGY
-------------------

The Gibbs free energy is G = H - T*S

Total enthalpy                    ...   -271.40373547 Eh
Total entropy correction          ...     -0.03066347 Eh    -19.24 kcal/mol
-----------------------------------------------------------------------
Final Gibbs free energy         ...   -271.43439894 Eh

For completeness - the Gibbs free energy minus the electronic energy
G-E(el)                           ...     -0.02635783 Eh    -16.54 kcal/mol

                             ****ORCA TERMINATED NORMALLY****
TOTAL RUN TIME: 0 days 0 hours 1 minutes 26 seconds 506 msec
