                         Program Version 4.2.0 -  RELEASE  -
|  1> #
|  2> # Au03C1_D3H TPSSh-D3BJ/Def2-TZVPPD
|  3> #
|  4> ! tpssh d3bj def2-tzvppd def2/jk grid4 nofinalgrid opt xyzfile numfreq
|  5>
|  6> *xyz 1 1
|  7> Au       0.000000    1.501400   -0.000000
|  8> Au       1.300251   -0.750700   -0.000000
|  9> Au      -1.300251   -0.750700   -0.000000
| 10> *
| 11>
| 12> %maxcore 5000
| 13>
| 14> %pal
| 15> nprocs = 24
| 16> end
| 17>
| 18>
| 19>                          ****END OF INPUT****
 Total Charge           Charge          ....    1
 Multiplicity           Mult            ....    1
 Number of Electrons    NEL             ....   56
Dispersion correction           -0.005875628
FINAL SINGLE POINT ENERGY      -406.866890146261
Dispersion correction            ... done
Dispersion correction           -0.005857399
FINAL SINGLE POINT ENERGY      -406.865240745477
Dispersion correction            ... done
Dispersion correction           -0.005869973
FINAL SINGLE POINT ENERGY      -406.867045339302
Dispersion correction            ... done
Dispersion correction           -0.005871471
FINAL SINGLE POINT ENERGY      -406.867080039336
Dispersion correction            ... done
Dispersion correction           -0.005871242
FINAL SINGLE POINT ENERGY      -406.867077824116
Dispersion correction            ... done
                    ***********************HURRAY********************

CARTESIAN COORDINATES (ANGSTROEM)
---------------------------------
  Au     0.000000    1.515200    0.000000
  Au     1.312112   -0.757600    0.000000
  Au    -1.312112   -0.757600    0.000000

 Multiplicity           Mult            ....    1
 Number of Electrons    NEL             ....   56
 Basis Dimension        Dim             ....  177

ORBITAL ENERGIES
----------------

  NO   OCC          E(Eh)            E(eV)
   0   2.0000      -4.293158      -116.8228
   1   2.0000      -4.292664      -116.8093
   2   2.0000      -4.292661      -116.8093
   3   2.0000      -2.495484       -67.9056
   4   2.0000      -2.489074       -67.7312
   5   2.0000      -2.489071       -67.7311
   6   2.0000      -2.483864       -67.5894
   7   2.0000      -2.483850       -67.5890
   8   2.0000      -2.482102       -67.5414
   9   2.0000      -2.479291       -67.4649
  10   2.0000      -2.478385       -67.4403
  11   2.0000      -2.478381       -67.4402
  12   2.0000      -0.580090       -15.7850
  13   2.0000      -0.540633       -14.7114
  14   2.0000      -0.540623       -14.7111
  15   2.0000      -0.530529       -14.4364
  16   2.0000      -0.510846       -13.9008
  17   2.0000      -0.500571       -13.6212
  18   2.0000      -0.500559       -13.6209
  19   2.0000      -0.472863       -12.8673
  20   2.0000      -0.472861       -12.8672
  21   2.0000      -0.466178       -12.6853
  22   2.0000      -0.466167       -12.6850
  23   2.0000      -0.466160       -12.6849
  24   2.0000      -0.464793       -12.6476
  25   2.0000      -0.463939       -12.6244
  26   2.0000      -0.463936       -12.6243
  27   2.0000      -0.439620       -11.9627
  28   0.0000      -0.324164        -8.8209
  29   0.0000      -0.324159        -8.8208
  30   0.0000      -0.212130        -5.7724
  31   0.0000      -0.186449        -5.0735
  32   0.0000      -0.171792        -4.6747

MULLIKEN ATOMIC CHARGES
-----------------------
   0 Au:    0.333410
   1 Au:    0.333295
   2 Au:    0.333295
Sum of atomic charges:    1.0000000

LOEWDIN ATOMIC CHARGES
----------------------
   0 Au:    0.333327
   1 Au:    0.333336
   2 Au:    0.333336

  Mayer bond orders larger than 0.100000
B(  0-Au,  1-Au) :   0.6687 B(  0-Au,  2-Au) :   0.6687 B(  1-Au,  2-Au) :   0.6691

Dispersion correction           -0.005871239
FINAL SINGLE POINT ENERGY      -406.867077896141

DIPOLE MOMENT
-------------
                                X             Y             Z
Electronic contribution:     -0.00000       0.00005       0.00000
Nuclear contribution   :      0.00000       0.00000       0.00000
                        -----------------------------------------
Total Dipole Moment    :     -0.00000       0.00005       0.00000
                        -----------------------------------------
Magnitude (a.u.)       :      0.00005
Magnitude (Debye)      :      0.00011

VIBRATIONAL FREQUENCIES
-----------------------

Scaling factor for frequencies =  1.000000000 (already applied!)

   0:         0.00 cm**-1
   1:         0.00 cm**-1
   2:         0.00 cm**-1
   3:         0.00 cm**-1
   4:         0.00 cm**-1
   5:         0.00 cm**-1
   6:       114.06 cm**-1
   7:       114.17 cm**-1
   8:       175.66 cm**-1

IR SPECTRUM
-----------

 Mode    freq (cm**-1)   T**2         TX         TY         TZ
-------------------------------------------------------------------
   6:       114.06    0.297247  ( -0.000041   0.545204   0.000002)
   7:       114.17    0.237942  ( -0.487793  -0.000058   0.000002)
   8:       175.66    0.000002  (  0.000002   0.001414   0.000000)

--------------------------
THERMOCHEMISTRY AT 298.15K
--------------------------

Temperature         ... 298.15 K
Pressure            ... 1.00 atm
Total Mass          ... 590.90 AMU

Throughout the following assumptions are being made:
  (1) The electronic state is orbitally nondegenerate
  (2) There are no thermally accessible electronically excited states
  (3) Hindered rotations indicated by low frequency modes are not
      treated as such but are treated as vibrations and this may
      cause some error
  (4) All equations used are the standard statistical mechanics
      equations for an ideal gas
  (5) All vibrations are strictly harmonic

freq.     114.06  E(vib)   ...       0.44
freq.     114.17  E(vib)   ...       0.44
freq.     175.66  E(vib)   ...       0.38

------------
INNER ENERGY
------------

The inner energy is: U= E(el) + E(ZPE) + E(vib) + E(rot) + E(trans)
    E(el)   - is the total energy from the electronic structure calculation
              = E(kin-el) + E(nuc-el) + E(el-el) + E(nuc-nuc)
    E(ZPE)  - the the zero temperature vibrational energy from the frequency calculation
    E(vib)  - the the finite temperature correction to E(ZPE) due to population
              of excited vibrational states
    E(rot)  - is the rotational thermal energy
    E(trans)- is the translational thermal energy

Summary of contributions to the inner energy U:
Electronic energy                ...   -406.86707791 Eh
Zero point energy                ...      0.00092014 Eh       0.58 kcal/mol
Thermal vibrational correction   ...      0.00201584 Eh       1.26 kcal/mol
Thermal rotational correction    ...      0.00141627 Eh       0.89 kcal/mol
Thermal translational correction ...      0.00141627 Eh       0.89 kcal/mol
-----------------------------------------------------------------------
Total thermal energy                   -406.86130939 Eh

Summary of corrections to the electronic energy:
(perhaps to be used in another calculation)
Total thermal correction                  0.00484838 Eh       3.04 kcal/mol
Non-thermal (ZPE) correction              0.00092014 Eh       0.58 kcal/mol
-----------------------------------------------------------------------
Total correction                          0.00576852 Eh       3.62 kcal/mol

--------
ENTHALPY
--------

The enthalpy is H = U + kB*T
                kB is Boltzmann's constant
Total free energy                 ...   -406.86130939 Eh
Thermal Enthalpy correction       ...      0.00094421 Eh       0.59 kcal/mol
-----------------------------------------------------------------------
Total Enthalpy                    ...   -406.86036518 Eh

Note: Rotational entropy computed according to Herzberg
Infrared and Raman Spectra, Chapter V,1, Van Nostrand Reinhold, 1945
Point Group:  C2v, Symmetry Number:   2
Rotational constants in cm-1:     0.024856     0.024853     0.012427

Vibrational entropy computed according to the QRRHO of S. Grimme
Chem.Eur.J. 2012 18 9955

-------
ENTROPY
-------

The entropy contributions are T*S = T*(S(el)+S(vib)+S(rot)+S(trans))
     S(el)   - electronic entropy
     S(vib)  - vibrational entropy
     S(rot)  - rotational entropy
     S(trans)- translational entropy
The entropies will be listed as mutliplied by the temperature to get
units of energy

Electronic entropy                ...      0.00000000 Eh      0.00 kcal/mol
Vibrational entropy               ...      0.00399612 Eh      2.51 kcal/mol
Rotational entropy                ...      0.01441631 Eh      9.05 kcal/mol
Translational entropy             ...      0.02138721 Eh     13.42 kcal/mol
-----------------------------------------------------------------------
Final entropy term                ...      0.03979965 Eh     24.97 kcal/mol

In case the symmetry of your molecule has not been determined correctly
or in case you have a reason to use a different symmetry number we print
out the resulting rotational entropy values for sn=1,12 :
 --------------------------------------------------------
|  sn= 1 | S(rot)=       0.01507077 Eh      9.46 kcal/mol|
|  sn= 2 | S(rot)=       0.01441631 Eh      9.05 kcal/mol|
|  sn= 3 | S(rot)=       0.01403348 Eh      8.81 kcal/mol|
|  sn= 4 | S(rot)=       0.01376185 Eh      8.64 kcal/mol|
|  sn= 5 | S(rot)=       0.01355117 Eh      8.50 kcal/mol|
|  sn= 6 | S(rot)=       0.01337902 Eh      8.40 kcal/mol|
|  sn= 7 | S(rot)=       0.01323348 Eh      8.30 kcal/mol|
|  sn= 8 | S(rot)=       0.01310740 Eh      8.22 kcal/mol|
|  sn= 9 | S(rot)=       0.01299619 Eh      8.16 kcal/mol|
|  sn=10 | S(rot)=       0.01289671 Eh      8.09 kcal/mol|
|  sn=11 | S(rot)=       0.01280672 Eh      8.04 kcal/mol|
|  sn=12 | S(rot)=       0.01272456 Eh      7.98 kcal/mol|
 --------------------------------------------------------

-------------------
GIBBS FREE ENERGY
-------------------

The Gibbs free energy is G = H - T*S

Total enthalpy                    ...   -406.86036518 Eh
Total entropy correction          ...     -0.03979965 Eh    -24.97 kcal/mol
-----------------------------------------------------------------------
Final Gibbs free energy         ...   -406.90016482 Eh

For completeness - the Gibbs free energy minus the electronic energy
G-E(el)                           ...     -0.03308691 Eh    -20.76 kcal/mol

                             ****ORCA TERMINATED NORMALLY****
TOTAL RUN TIME: 0 days 0 hours 4 minutes 17 seconds 773 msec
