                         Program Version 4.2.0 -  RELEASE  -
|  1> #
|  2> # Au03N0_LIN TPSSh-D3BJ/Def2-TZVPPD
|  3> #
|  4> ! tpssh d3bj def2-tzvppd def2/jk grid4 nofinalgrid opt xyzfile numfreq
|  5>
|  6> *xyz 0 2
|  7> Au       0.000000    0.000000    0.000000
|  8> Au       0.000000    0.000000    2.547414
|  9> Au       0.000000    0.000000   -2.547414
| 10> *
| 11>
| 12> %maxcore 5000
| 13>
| 14> %pal
| 15> nprocs = 24
| 16> end
| 17>
| 18>
| 19>                          ****END OF INPUT****
 Total Charge           Charge          ....    0
 Multiplicity           Mult            ....    2
 Number of Electrons    NEL             ....   57
Dispersion correction           -0.004726642
FINAL SINGLE POINT ENERGY      -407.112882495448
Dispersion correction            ... done
Dispersion correction           -0.004568763
FINAL SINGLE POINT ENERGY      -407.110621165551
Dispersion correction            ... done
Dispersion correction           -0.004678535
FINAL SINGLE POINT ENERGY      -407.112971942744
Dispersion correction            ... done
Dispersion correction           -0.004695742
FINAL SINGLE POINT ENERGY      -407.113023403384
Dispersion correction            ... done
Dispersion correction           -0.004692057
FINAL SINGLE POINT ENERGY      -407.113020014124
Dispersion correction            ... done
                    ***********************HURRAY********************

CARTESIAN COORDINATES (ANGSTROEM)
---------------------------------
  Au     0.000000    0.000000    0.000136
  Au    -0.000000   -0.000000    2.570849
  Au    -0.000000   -0.000000   -2.570985

 Multiplicity           Mult            ....    2
 Number of Electrons    NEL             ....   57
 Basis Dimension        Dim             ....  177

ORBITAL ENERGIES
----------------
                 SPIN UP ORBITALS
  NO   OCC          E(Eh)            E(eV)
   0   1.0000      -4.090826      -111.3170
   1   1.0000      -4.090815      -111.3167
   2   1.0000      -4.077762      -110.9615
   3   1.0000      -2.289897       -62.3113
   4   1.0000      -2.287222       -62.2385
   5   1.0000      -2.279324       -62.0235
   6   1.0000      -2.279324       -62.0235
   7   1.0000      -2.279304       -62.0230
   8   1.0000      -2.279304       -62.0230
   9   1.0000      -2.273907       -61.8762
  10   1.0000      -2.263530       -61.5938
  11   1.0000      -2.263530       -61.5938
  12   1.0000      -0.374449       -10.1893
  13   1.0000      -0.325153        -8.8479
  14   1.0000      -0.325153        -8.8479
  15   1.0000      -0.302234        -8.2242
  16   1.0000      -0.296848        -8.0776
  17   1.0000      -0.296848        -8.0776
  18   1.0000      -0.289805        -7.8860
  19   1.0000      -0.289793        -7.8857
  20   1.0000      -0.287504        -7.8234
  21   1.0000      -0.287492        -7.8231
  22   1.0000      -0.264804        -7.2057
  23   1.0000      -0.262699        -7.1484
  24   1.0000      -0.262682        -7.1479
  25   1.0000      -0.246927        -6.7192
  26   1.0000      -0.246927        -6.7192
  27   1.0000      -0.240570        -6.5462
  28   1.0000      -0.236038        -6.4229
  29   0.0000      -0.112349        -3.0572
  30   0.0000      -0.041502        -1.1293
  31   0.0000      -0.041502        -1.1293
  32   0.0000      -0.020971        -0.5707
  33   0.0000      -0.002738        -0.0745

                 SPIN DOWN ORBITALS
  NO   OCC          E(Eh)            E(eV)
   0   1.0000      -4.089952      -111.2932
   1   1.0000      -4.089940      -111.2929
   2   1.0000      -4.078030      -110.9688
   3   1.0000      -2.289048       -62.2882
   4   1.0000      -2.286153       -62.2094
   5   1.0000      -2.278950       -62.0134
   6   1.0000      -2.278950       -62.0134
   7   1.0000      -2.278923       -62.0126
   8   1.0000      -2.278923       -62.0126
   9   1.0000      -2.273988       -61.8784
  10   1.0000      -2.263991       -61.6063
  11   1.0000      -2.263991       -61.6063
  12   1.0000      -0.371007       -10.0956
  13   1.0000      -0.321551        -8.7499
  14   1.0000      -0.321551        -8.7499
  15   1.0000      -0.298759        -8.1296
  16   1.0000      -0.291718        -7.9380
  17   1.0000      -0.291718        -7.9380
  18   1.0000      -0.283067        -7.7026
  19   1.0000      -0.283054        -7.7023
  20   1.0000      -0.279947        -7.6177
  21   1.0000      -0.279935        -7.6174
  22   1.0000      -0.262236        -7.1358
  23   1.0000      -0.262219        -7.1354
  24   1.0000      -0.246038        -6.6950
  25   1.0000      -0.245248        -6.6735
  26   1.0000      -0.245248        -6.6735
  27   1.0000      -0.239903        -6.5281
  28   0.0000      -0.198777        -5.4090
  29   0.0000      -0.101635        -2.7656
  30   0.0000      -0.032706        -0.8900
  31   0.0000      -0.032706        -0.8900
  32   0.0000      -0.010514        -0.2861

MULLIKEN ATOMIC CHARGES AND SPIN POPULATIONS
--------------------------------------------
   0 Au:   -0.145379    0.001597
   1 Au:    0.072701    0.499193
   2 Au:    0.072678    0.499210
Sum of atomic charges         :   -0.0000000

LOEWDIN ATOMIC CHARGES AND SPIN POPULATIONS
-------------------------------------------
   0 Au:   -0.183086    0.272909
   1 Au:    0.091548    0.363519
   2 Au:    0.091538    0.363572

  Mayer bond orders larger than 0.100000
B(  0-Au,  1-Au) :   0.7098 B(  0-Au,  2-Au) :   0.7097 B(  1-Au,  2-Au) :   0.2972

Dispersion correction           -0.004692093
FINAL SINGLE POINT ENERGY      -407.113020071706

DIPOLE MOMENT
-------------
                                X             Y             Z
Electronic contribution:     -0.00000      -0.00000       0.00006
Nuclear contribution   :      0.00000       0.00000       0.00000
                        -----------------------------------------
Total Dipole Moment    :     -0.00000      -0.00000       0.00006
                        -----------------------------------------
Magnitude (a.u.)       :      0.00006
Magnitude (Debye)      :      0.00015

VIBRATIONAL FREQUENCIES
-----------------------

Scaling factor for frequencies =  1.000000000 (already applied!)

   0:         0.00 cm**-1
   1:         0.00 cm**-1
   2:         0.00 cm**-1
   3:         0.00 cm**-1
   4:         0.00 cm**-1
   5:         0.00 cm**-1
   6:       -24.98 cm**-1 ***imaginary mode***
   7:       110.80 cm**-1
   8:       177.38 cm**-1

IR SPECTRUM
-----------

 Mode    freq (cm**-1)   T**2         TX         TY         TZ
-------------------------------------------------------------------
   7:       110.80    0.000043  ( -0.000003  -0.000006   0.006526)
   8:       177.38    2.579843  ( -0.000000  -0.000001  -1.606189)

--------------------------
THERMOCHEMISTRY AT 298.15K
--------------------------

Temperature         ... 298.15 K
Pressure            ... 1.00 atm
Total Mass          ... 590.90 AMU
The molecule is recognized as being linear

Throughout the following assumptions are being made:
  (1) The electronic state is orbitally nondegenerate
      but the spin degeneracy is treated
  (2) There are no thermally accessible electronically excited states
  (3) Hindered rotations indicated by low frequency modes are not
      treated as such but are treated as vibrations and this may
      cause some error
  (4) All equations used are the standard statistical mechanics
      equations for an ideal gas
  (5) All vibrations are strictly harmonic

freq.     110.80  E(vib)   ...       0.45
freq.     177.38  E(vib)   ...       0.37

------------
INNER ENERGY
------------

The inner energy is: U= E(el) + E(ZPE) + E(vib) + E(rot) + E(trans)
    E(el)   - is the total energy from the electronic structure calculation
              = E(kin-el) + E(nuc-el) + E(el-el) + E(nuc-nuc)
    E(ZPE)  - the the zero temperature vibrational energy from the frequency calculation
    E(vib)  - the the finite temperature correction to E(ZPE) due to population
              of excited vibrational states
    E(rot)  - is the rotational thermal energy
    E(trans)- is the translational thermal energy

Summary of contributions to the inner energy U:
Electronic energy                ...   -407.11302008 Eh
Zero point energy                ...      0.00065653 Eh       0.41 kcal/mol
Thermal vibrational correction   ...      0.00131123 Eh       0.82 kcal/mol
Thermal rotational correction    ...      0.00094418 Eh       0.59 kcal/mol
Thermal translational correction ...      0.00141627 Eh       0.89 kcal/mol
-----------------------------------------------------------------------
Total thermal energy                   -407.10869186 Eh

Summary of corrections to the electronic energy:
(perhaps to be used in another calculation)
Total thermal correction                  0.00367169 Eh       2.30 kcal/mol
Non-thermal (ZPE) correction              0.00065653 Eh       0.41 kcal/mol
-----------------------------------------------------------------------
Total correction                          0.00432822 Eh       2.72 kcal/mol

--------
ENTHALPY
--------

The enthalpy is H = U + kB*T
                kB is Boltzmann's constant
Total free energy                 ...   -407.10869186 Eh
Thermal Enthalpy correction       ...      0.00094421 Eh       0.59 kcal/mol
-----------------------------------------------------------------------
Total Enthalpy                    ...   -407.10774765 Eh

Note: Rotational entropy computed according to Herzberg
Infrared and Raman Spectra, Chapter V,1, Van Nostrand Reinhold, 1945
Point Group:  Cinfv, Symmetry Number:   1
Rotational constants in cm-1:     0.000000     0.006474     0.006474

Vibrational entropy computed according to the QRRHO of S. Grimme
Chem.Eur.J. 2012 18 9955

-------
ENTROPY
-------

The entropy contributions are T*S = T*(S(el)+S(vib)+S(rot)+S(trans))
     S(el)   - electronic entropy
     S(vib)  - vibrational entropy
     S(rot)  - rotational entropy
     S(trans)- translational entropy
The entropies will be listed as mutliplied by the temperature to get
units of energy

Electronic entropy                ...      0.00065446 Eh      0.41 kcal/mol
Vibrational entropy               ...      0.00256771 Eh      1.61 kcal/mol
Rotational entropy                ...      0.01073884 Eh      6.74 kcal/mol
Translational entropy             ...      0.02138721 Eh     13.42 kcal/mol
-----------------------------------------------------------------------
Final entropy term                ...      0.03534822 Eh     22.18 kcal/mol

In case the symmetry of your molecule has not been determined correctly
or in case you have a reason to use a different symmetry number we print
out the resulting rotational entropy values for sn=1,12 :
 --------------------------------------------------------
|  sn= 1 | S(rot)=      -0.00062110 Eh     -0.39 kcal/mol|
|  sn= 2 | S(rot)=      -0.00127555 Eh     -0.80 kcal/mol|
|  sn= 3 | S(rot)=      -0.00165838 Eh     -1.04 kcal/mol|
|  sn= 4 | S(rot)=      -0.00193001 Eh     -1.21 kcal/mol|
|  sn= 5 | S(rot)=      -0.00214070 Eh     -1.34 kcal/mol|
|  sn= 6 | S(rot)=      -0.00231284 Eh     -1.45 kcal/mol|
|  sn= 7 | S(rot)=      -0.00245839 Eh     -1.54 kcal/mol|
|  sn= 8 | S(rot)=      -0.00258446 Eh     -1.62 kcal/mol|
|  sn= 9 | S(rot)=      -0.00269567 Eh     -1.69 kcal/mol|
|  sn=10 | S(rot)=      -0.00279515 Eh     -1.75 kcal/mol|
|  sn=11 | S(rot)=      -0.00288514 Eh     -1.81 kcal/mol|
|  sn=12 | S(rot)=      -0.00296730 Eh     -1.86 kcal/mol|
 --------------------------------------------------------

-------------------
GIBBS FREE ENERGY
-------------------

The Gibbs free energy is G = H - T*S

Total enthalpy                    ...   -407.10774765 Eh
Total entropy correction          ...     -0.03534822 Eh    -22.18 kcal/mol
-----------------------------------------------------------------------
Final Gibbs free energy         ...   -407.14309588 Eh

For completeness - the Gibbs free energy minus the electronic energy
G-E(el)                           ...     -0.03007580 Eh    -18.87 kcal/mol

                             ****ORCA TERMINATED NORMALLY****
TOTAL RUN TIME: 0 days 0 hours 3 minutes 45 seconds 201 msec
