                         Program Version 4.2.0 -  RELEASE  -
|  1> #
|  2> # Au03N0_D3H TPSSh-D3BJ/Def2-TZVPPD
|  3> #
|  4> ! tpssh d3bj def2-tzvppd def2/jk grid4 nofinalgrid opt xyzfile numfreq
|  5>
|  6> *xyz 0 2
|  7> Au       0.000000    1.515176   -0.000000
|  8> Au       1.312181   -0.757588    0.000000
|  9> Au      -1.312181   -0.757588   -0.000000
| 10> *
| 11>
| 12> %maxcore 5000
| 13>
| 14> %pal
| 15> nprocs = 24
| 16> end
| 17>
| 18>
| 19>                          ****END OF INPUT****
 Total Charge           Charge          ....    0
 Multiplicity           Mult            ....    2
 Number of Electrons    NEL             ....   57
Dispersion correction           -0.005871230
FINAL SINGLE POINT ENERGY      -407.114247650688
Dispersion correction            ... done
Dispersion correction           -0.005859083
FINAL SINGLE POINT ENERGY      -407.116081257261
Dispersion correction            ... done
Dispersion correction           -0.005867343
FINAL SINGLE POINT ENERGY      -407.115298059744
Dispersion correction            ... done
Dispersion correction           -0.005861945
FINAL SINGLE POINT ENERGY      -407.116168467228
Dispersion correction            ... done
                    ***********************HURRAY********************

CARTESIAN COORDINATES (ANGSTROEM)
---------------------------------
  Au     0.000000    1.594493    0.000000
  Au     1.283370   -0.797246    0.000000
  Au    -1.283371   -0.797246    0.000000

 Multiplicity           Mult            ....    2
 Number of Electrons    NEL             ....   57
 Basis Dimension        Dim             ....  177

ORBITAL ENERGIES
----------------
                 SPIN UP ORBITALS
  NO   OCC          E(Eh)            E(eV)
   0   1.0000      -4.099723      -111.5591
   1   1.0000      -4.099268      -111.5467
   2   1.0000      -4.080856      -111.0457
   3   1.0000      -2.300489       -62.5995
   4   1.0000      -2.292543       -62.3833
   5   1.0000      -2.290233       -62.3204
   6   1.0000      -2.288526       -62.2740
   7   1.0000      -2.286380       -62.2156
   8   1.0000      -2.285596       -62.1942
   9   1.0000      -2.275192       -61.9111
  10   1.0000      -2.270962       -61.7960
  11   1.0000      -2.265352       -61.6434
  12   1.0000      -0.379140       -10.3169
  13   1.0000      -0.349956        -9.5228
  14   1.0000      -0.332678        -9.0526
  15   1.0000      -0.329095        -8.9551
  16   1.0000      -0.314168        -8.5490
  17   1.0000      -0.307456        -8.3663
  18   1.0000      -0.296360        -8.0644
  19   1.0000      -0.281462        -7.6590
  20   1.0000      -0.277069        -7.5394
  21   1.0000      -0.273853        -7.4519
  22   1.0000      -0.271004        -7.3744
  23   1.0000      -0.270261        -7.3542
  24   1.0000      -0.263933        -7.1820
  25   1.0000      -0.263467        -7.1693
  26   1.0000      -0.261922        -7.1272
  27   1.0000      -0.245533        -6.6813
  28   1.0000      -0.174911        -4.7596
  29   0.0000      -0.150716        -4.1012
  30   0.0000      -0.048509        -1.3200
  31   0.0000      -0.032931        -0.8961
  32   0.0000      -0.015080        -0.4103
  33   0.0000      -0.011438        -0.3113

                 SPIN DOWN ORBITALS
  NO   OCC          E(Eh)            E(eV)
   0   1.0000      -4.098928      -111.5375
   1   1.0000      -4.098476      -111.5252
   2   1.0000      -4.078488      -110.9813
   3   1.0000      -2.299721       -62.5786
   4   1.0000      -2.291562       -62.3566
   5   1.0000      -2.288914       -62.2845
   6   1.0000      -2.287496       -62.2459
   7   1.0000      -2.285952       -62.2039
   8   1.0000      -2.285171       -62.1827
   9   1.0000      -2.272272       -61.8317
  10   1.0000      -2.268641       -61.7329
  11   1.0000      -2.263603       -61.5958
  12   1.0000      -0.375341       -10.2136
  13   1.0000      -0.346961        -9.4413
  14   1.0000      -0.331195        -9.0123
  15   1.0000      -0.321002        -8.7349
  16   1.0000      -0.309035        -8.4093
  17   1.0000      -0.304977        -8.2988
  18   1.0000      -0.292998        -7.9729
  19   1.0000      -0.277414        -7.5488
  20   1.0000      -0.275871        -7.5068
  21   1.0000      -0.271712        -7.3937
  22   1.0000      -0.270956        -7.3731
  23   1.0000      -0.263796        -7.1783
  24   1.0000      -0.259058        -7.0493
  25   1.0000      -0.256289        -6.9740
  26   1.0000      -0.253745        -6.9047
  27   1.0000      -0.237502        -6.4627
  28   0.0000      -0.144533        -3.9329
  29   0.0000      -0.130309        -3.5459
  30   0.0000      -0.042860        -1.1663
  31   0.0000      -0.020830        -0.5668
  32   0.0000      -0.005322        -0.1448

MULLIKEN ATOMIC CHARGES AND SPIN POPULATIONS
--------------------------------------------
   0 Au:   -0.110400    0.648819
   1 Au:    0.055199    0.175590
   2 Au:    0.055201    0.175591
Sum of atomic charges         :   -0.0000000

LOEWDIN ATOMIC CHARGES AND SPIN POPULATIONS
-------------------------------------------
   0 Au:   -0.075836    0.543068
   1 Au:    0.037918    0.228466
   2 Au:    0.037918    0.228466

  Mayer bond orders larger than 0.100000
B(  0-Au,  1-Au) :   0.5792 B(  0-Au,  2-Au) :   0.5792 B(  1-Au,  2-Au) :   0.8445

Dispersion correction           -0.005862101
FINAL SINGLE POINT ENERGY      -407.116169362606

DIPOLE MOMENT
-------------
                                X             Y             Z
Electronic contribution:      0.00000      -0.52233      -0.00000
Nuclear contribution   :     -0.00000       0.00000       0.00000
                        -----------------------------------------
Total Dipole Moment    :      0.00000      -0.52233      -0.00000
                        -----------------------------------------
Magnitude (a.u.)       :      0.52233
Magnitude (Debye)      :      1.32766

VIBRATIONAL FREQUENCIES
-----------------------

Scaling factor for frequencies =  1.000000000 (already applied!)

   0:         0.00 cm**-1
   1:         0.00 cm**-1
   2:         0.00 cm**-1
   3:         0.00 cm**-1
   4:         0.00 cm**-1
   5:         0.00 cm**-1
   6:       -45.82 cm**-1 ***imaginary mode***
   7:       109.83 cm**-1
   8:       170.28 cm**-1

IR SPECTRUM
-----------

 Mode    freq (cm**-1)   T**2         TX         TY         TZ
-------------------------------------------------------------------
   7:       109.83    0.116128  ( -0.000010  -0.340776  -0.000002)
   8:       170.28    0.033917  ( -0.000019  -0.184165   0.000005)

--------------------------
THERMOCHEMISTRY AT 298.15K
--------------------------

Temperature         ... 298.15 K
Pressure            ... 1.00 atm
Total Mass          ... 590.90 AMU

Throughout the following assumptions are being made:
  (1) The electronic state is orbitally nondegenerate
      but the spin degeneracy is treated
  (2) There are no thermally accessible electronically excited states
  (3) Hindered rotations indicated by low frequency modes are not
      treated as such but are treated as vibrations and this may
      cause some error
  (4) All equations used are the standard statistical mechanics
      equations for an ideal gas
  (5) All vibrations are strictly harmonic

freq.     109.83  E(vib)   ...       0.45
freq.     170.28  E(vib)   ...       0.38

------------
INNER ENERGY
------------

The inner energy is: U= E(el) + E(ZPE) + E(vib) + E(rot) + E(trans)
    E(el)   - is the total energy from the electronic structure calculation
              = E(kin-el) + E(nuc-el) + E(el-el) + E(nuc-nuc)
    E(ZPE)  - the the zero temperature vibrational energy from the frequency calculation
    E(vib)  - the the finite temperature correction to E(ZPE) due to population
              of excited vibrational states
    E(rot)  - is the rotational thermal energy
    E(trans)- is the translational thermal energy

Summary of contributions to the inner energy U:
Electronic energy                ...   -407.11616936 Eh
Zero point energy                ...      0.00063814 Eh       0.40 kcal/mol
Thermal vibrational correction   ...      0.00132481 Eh       0.83 kcal/mol
Thermal rotational correction    ...      0.00141627 Eh       0.89 kcal/mol
Thermal translational correction ...      0.00141627 Eh       0.89 kcal/mol
-----------------------------------------------------------------------
Total thermal energy                   -407.11137386 Eh

Summary of corrections to the electronic energy:
(perhaps to be used in another calculation)
Total thermal correction                  0.00415736 Eh       2.61 kcal/mol
Non-thermal (ZPE) correction              0.00063814 Eh       0.40 kcal/mol
-----------------------------------------------------------------------
Total correction                          0.00479550 Eh       3.01 kcal/mol

--------
ENTHALPY
--------

The enthalpy is H = U + kB*T
                kB is Boltzmann's constant
Total free energy                 ...   -407.11137386 Eh
Thermal Enthalpy correction       ...      0.00094421 Eh       0.59 kcal/mol
-----------------------------------------------------------------------
Total Enthalpy                    ...   -407.11042965 Eh

Note: Rotational entropy computed according to Herzberg
Infrared and Raman Spectra, Chapter V,1, Van Nostrand Reinhold, 1945
Point Group:  C2v, Symmetry Number:   2
Rotational constants in cm-1:     0.025982     0.022442     0.012041

Vibrational entropy computed according to the QRRHO of S. Grimme
Chem.Eur.J. 2012 18 9955

-------
ENTROPY
-------

The entropy contributions are T*S = T*(S(el)+S(vib)+S(rot)+S(trans))
     S(el)   - electronic entropy
     S(vib)  - vibrational entropy
     S(rot)  - rotational entropy
     S(trans)- translational entropy
The entropies will be listed as mutliplied by the temperature to get
units of energy

Electronic entropy                ...      0.00065446 Eh      0.41 kcal/mol
Vibrational entropy               ...      0.00260628 Eh      1.64 kcal/mol
Rotational entropy                ...      0.01445845 Eh      9.07 kcal/mol
Translational entropy             ...      0.02138721 Eh     13.42 kcal/mol
-----------------------------------------------------------------------
Final entropy term                ...      0.03910640 Eh     24.54 kcal/mol

In case the symmetry of your molecule has not been determined correctly
or in case you have a reason to use a different symmetry number we print
out the resulting rotational entropy values for sn=1,12 :
 --------------------------------------------------------
|  sn= 1 | S(rot)=       0.01511290 Eh      9.48 kcal/mol|
|  sn= 2 | S(rot)=       0.01445845 Eh      9.07 kcal/mol|
|  sn= 3 | S(rot)=       0.01407562 Eh      8.83 kcal/mol|
|  sn= 4 | S(rot)=       0.01380399 Eh      8.66 kcal/mol|
|  sn= 5 | S(rot)=       0.01359330 Eh      8.53 kcal/mol|
|  sn= 6 | S(rot)=       0.01342116 Eh      8.42 kcal/mol|
|  sn= 7 | S(rot)=       0.01327561 Eh      8.33 kcal/mol|
|  sn= 8 | S(rot)=       0.01314954 Eh      8.25 kcal/mol|
|  sn= 9 | S(rot)=       0.01303833 Eh      8.18 kcal/mol|
|  sn=10 | S(rot)=       0.01293885 Eh      8.12 kcal/mol|
|  sn=11 | S(rot)=       0.01284886 Eh      8.06 kcal/mol|
|  sn=12 | S(rot)=       0.01276670 Eh      8.01 kcal/mol|
 --------------------------------------------------------

-------------------
GIBBS FREE ENERGY
-------------------

The Gibbs free energy is G = H - T*S

Total enthalpy                    ...   -407.11042965 Eh
Total entropy correction          ...     -0.03910640 Eh    -24.54 kcal/mol
-----------------------------------------------------------------------
Final Gibbs free energy         ...   -407.14953605 Eh

For completeness - the Gibbs free energy minus the electronic energy
G-E(el)                           ...     -0.03336669 Eh    -20.94 kcal/mol

                             ****ORCA TERMINATED NORMALLY****
TOTAL RUN TIME: 0 days 0 hours 5 minutes 31 seconds 589 msec
