                         Program Version 4.2.0 -  RELEASE  -
|  1> #
|  2> # Au03C1_LIN TPSSh-D3BJ/Def2-TZVPPD
|  3> #
|  4> ! tpssh d3bj def2-tzvppd def2/jk grid4 nofinalgrid opt xyzfile numfreq
|  5>
|  6> *xyz 1 1
|  7> Au       0.000000    0.000000    0.000000
|  8> Au       0.000000    0.000000    2.576864
|  9> Au       0.000000    0.000000   -2.576864
| 10> *
| 11>
| 12> %maxcore 5000
| 13>
| 14> %pal
| 15> nprocs = 24
| 16> end
| 17>
| 18>
| 19>                          ****END OF INPUT****
 Total Charge           Charge          ....    1
 Multiplicity           Mult            ....    1
 Number of Electrons    NEL             ....   56
Dispersion correction           -0.004683465
FINAL SINGLE POINT ENERGY      -406.799887724605
Dispersion correction            ... done
Dispersion correction           -0.004539691
FINAL SINGLE POINT ENERGY      -406.798195563675
Dispersion correction            ... done
Dispersion correction           -0.004640743
FINAL SINGLE POINT ENERGY      -406.799947991596
Dispersion correction            ... done
Dispersion correction           -0.004654982
FINAL SINGLE POINT ENERGY      -406.799983527335
Dispersion correction            ... done
Dispersion correction           -0.004652187
FINAL SINGLE POINT ENERGY      -406.799980795581
Dispersion correction            ... done
                    ***********************HURRAY********************

CARTESIAN COORDINATES (ANGSTROEM)
---------------------------------
  Au    -0.000000    0.000000   -0.000019
  Au     0.000000   -0.000000    2.598688
  Au     0.000000   -0.000000   -2.598669

 Multiplicity           Mult            ....    1
 Number of Electrons    NEL             ....   56
 Basis Dimension        Dim             ....  177

ORBITAL ENERGIES
----------------

  NO   OCC          E(Eh)            E(eV)
   0   2.0000      -4.290494      -116.7503
   1   2.0000      -4.290493      -116.7502
   2   2.0000      -4.256041      -115.8128
   3   2.0000      -2.487962       -67.7009
   4   2.0000      -2.487062       -67.6764
   5   2.0000      -2.481419       -67.5229
   6   2.0000      -2.481419       -67.5229
   7   2.0000      -2.481407       -67.5225
   8   2.0000      -2.481407       -67.5225
   9   2.0000      -2.455804       -66.8258
  10   2.0000      -2.441872       -66.4467
  11   2.0000      -2.441872       -66.4467
  12   2.0000      -0.562179       -15.2977
  13   2.0000      -0.514280       -13.9943
  14   2.0000      -0.514280       -13.9943
  15   2.0000      -0.499785       -13.5999
  16   2.0000      -0.493786       -13.4366
  17   2.0000      -0.493786       -13.4366
  18   2.0000      -0.486168       -13.2293
  19   2.0000      -0.486156       -13.2290
  20   2.0000      -0.485190       -13.2027
  21   2.0000      -0.485178       -13.2024
  22   2.0000      -0.442729       -12.0473
  23   2.0000      -0.441697       -12.0192
  24   2.0000      -0.441681       -12.0187
  25   2.0000      -0.436296       -11.8722
  26   2.0000      -0.436296       -11.8722
  27   2.0000      -0.419180       -11.4065
  28   0.0000      -0.390554       -10.6275
  29   0.0000      -0.278967        -7.5911
  30   0.0000      -0.194775        -5.3001
  31   0.0000      -0.194775        -5.3001
  32   0.0000      -0.175568        -4.7774

MULLIKEN ATOMIC CHARGES
-----------------------
   0 Au:   -0.019037
   1 Au:    0.509524
   2 Au:    0.509513
Sum of atomic charges:    1.0000000

LOEWDIN ATOMIC CHARGES
----------------------
   0 Au:    0.127804
   1 Au:    0.436103
   2 Au:    0.436093

  Mayer bond orders larger than 0.100000
B(  0-Au,  1-Au) :   0.6486 B(  0-Au,  2-Au) :   0.6486 B(  1-Au,  2-Au) :   0.4303

Dispersion correction           -0.004652244
FINAL SINGLE POINT ENERGY      -406.799980844033

DIPOLE MOMENT
-------------
                                X             Y             Z
Electronic contribution:     -0.00000      -0.00000       0.00005
Nuclear contribution   :      0.00000       0.00000      -0.00000
                        -----------------------------------------
Total Dipole Moment    :     -0.00000      -0.00000       0.00005
                        -----------------------------------------
Magnitude (a.u.)       :      0.00005
Magnitude (Debye)      :      0.00012

VIBRATIONAL FREQUENCIES
-----------------------

Scaling factor for frequencies =  1.000000000 (already applied!)

   0:         0.00 cm**-1
   1:         0.00 cm**-1
   2:         0.00 cm**-1
   3:         0.00 cm**-1
   4:         0.00 cm**-1
   5:         0.00 cm**-1
   6:       -63.58 cm**-1 ***imaginary mode***
   7:       101.29 cm**-1
   8:       166.37 cm**-1

IR SPECTRUM
-----------

 Mode    freq (cm**-1)   T**2         TX         TY         TZ
-------------------------------------------------------------------
   7:       101.29    0.000000  (  0.000001   0.000002  -0.000527)
   8:       166.37   11.062295  (  0.000000   0.000007  -3.326003)

--------------------------
THERMOCHEMISTRY AT 298.15K
--------------------------

Temperature         ... 298.15 K
Pressure            ... 1.00 atm
Total Mass          ... 590.90 AMU
The molecule is recognized as being linear

Throughout the following assumptions are being made:
  (1) The electronic state is orbitally nondegenerate
  (2) There are no thermally accessible electronically excited states
  (3) Hindered rotations indicated by low frequency modes are not
      treated as such but are treated as vibrations and this may
      cause some error
  (4) All equations used are the standard statistical mechanics
      equations for an ideal gas
  (5) All vibrations are strictly harmonic

freq.     101.29  E(vib)   ...       0.46
freq.     166.37  E(vib)   ...       0.39

------------
INNER ENERGY
------------

The inner energy is: U= E(el) + E(ZPE) + E(vib) + E(rot) + E(trans)
    E(el)   - is the total energy from the electronic structure calculation
              = E(kin-el) + E(nuc-el) + E(el-el) + E(nuc-nuc)
    E(ZPE)  - the the zero temperature vibrational energy from the frequency calculation
    E(vib)  - the the finite temperature correction to E(ZPE) due to population
              of excited vibrational states
    E(rot)  - is the rotational thermal energy
    E(trans)- is the translational thermal energy

Summary of contributions to the inner energy U:
Electronic energy                ...   -406.79998084 Eh
Zero point energy                ...      0.00060976 Eh       0.38 kcal/mol
Thermal vibrational correction   ...      0.00134755 Eh       0.85 kcal/mol
Thermal rotational correction    ...      0.00094418 Eh       0.59 kcal/mol
Thermal translational correction ...      0.00141627 Eh       0.89 kcal/mol
-----------------------------------------------------------------------
Total thermal energy                   -406.79566307 Eh

Summary of corrections to the electronic energy:
(perhaps to be used in another calculation)
Total thermal correction                  0.00370800 Eh       2.33 kcal/mol
Non-thermal (ZPE) correction              0.00060976 Eh       0.38 kcal/mol
-----------------------------------------------------------------------
Total correction                          0.00431777 Eh       2.71 kcal/mol

--------
ENTHALPY
--------

The enthalpy is H = U + kB*T
                kB is Boltzmann's constant
Total free energy                 ...   -406.79566307 Eh
Thermal Enthalpy correction       ...      0.00094421 Eh       0.59 kcal/mol
-----------------------------------------------------------------------
Total Enthalpy                    ...   -406.79471887 Eh

Note: Rotational entropy computed according to Herzberg
Infrared and Raman Spectra, Chapter V,1, Van Nostrand Reinhold, 1945
Point Group:  Cinfv, Symmetry Number:   1
Rotational constants in cm-1:     0.000000     0.006337     0.006337

Vibrational entropy computed according to the QRRHO of S. Grimme
Chem.Eur.J. 2012 18 9955

-------
ENTROPY
-------

The entropy contributions are T*S = T*(S(el)+S(vib)+S(rot)+S(trans))
     S(el)   - electronic entropy
     S(vib)  - vibrational entropy
     S(rot)  - rotational entropy
     S(trans)- translational entropy
The entropies will be listed as mutliplied by the temperature to get
units of energy

Electronic entropy                ...      0.00000000 Eh      0.00 kcal/mol
Vibrational entropy               ...      0.00266311 Eh      1.67 kcal/mol
Rotational entropy                ...      0.01075912 Eh      6.75 kcal/mol
Translational entropy             ...      0.02138721 Eh     13.42 kcal/mol
-----------------------------------------------------------------------
Final entropy term                ...      0.03480945 Eh     21.84 kcal/mol

In case the symmetry of your molecule has not been determined correctly
or in case you have a reason to use a different symmetry number we print
out the resulting rotational entropy values for sn=1,12 :
 --------------------------------------------------------
|  sn= 1 | S(rot)=      -0.00057737 Eh     -0.36 kcal/mol|
|  sn= 2 | S(rot)=      -0.00123182 Eh     -0.77 kcal/mol|
|  sn= 3 | S(rot)=      -0.00161466 Eh     -1.01 kcal/mol|
|  sn= 4 | S(rot)=      -0.00188628 Eh     -1.18 kcal/mol|
|  sn= 5 | S(rot)=      -0.00209697 Eh     -1.32 kcal/mol|
|  sn= 6 | S(rot)=      -0.00226911 Eh     -1.42 kcal/mol|
|  sn= 7 | S(rot)=      -0.00241466 Eh     -1.52 kcal/mol|
|  sn= 8 | S(rot)=      -0.00254074 Eh     -1.59 kcal/mol|
|  sn= 9 | S(rot)=      -0.00265194 Eh     -1.66 kcal/mol|
|  sn=10 | S(rot)=      -0.00275142 Eh     -1.73 kcal/mol|
|  sn=11 | S(rot)=      -0.00284141 Eh     -1.78 kcal/mol|
|  sn=12 | S(rot)=      -0.00292357 Eh     -1.83 kcal/mol|
 --------------------------------------------------------

-------------------
GIBBS FREE ENERGY
-------------------

The Gibbs free energy is G = H - T*S

Total enthalpy                    ...   -406.79471887 Eh
Total entropy correction          ...     -0.03480945 Eh    -21.84 kcal/mol
-----------------------------------------------------------------------
Final Gibbs free energy         ...   -406.82952831 Eh

For completeness - the Gibbs free energy minus the electronic energy
G-E(el)                           ...     -0.02954747 Eh    -18.54 kcal/mol

                             ****ORCA TERMINATED NORMALLY****
TOTAL RUN TIME: 0 days 0 hours 3 minutes 28 seconds 825 msec
