                         Program Version 4.2.0 -  RELEASE  -
|  1> #
|  2> # Cu01N0_F TPSSh-D3BJ/Def2-TZVPPD
|  3> #
|  4> ! tpssh d3bj def2-tzvppd def2/jk grid4 nofinalgrid opt xyzfile numfreq
|  5>
|  6> *xyz 0 1
|  7> Cu       0.000000    0.000000    0.412716
|  8> F        0.000000    0.000000   -1.329863
|  9> *
| 10>
| 11> %maxcore 5000
| 12>
| 13> %pal
| 14> nprocs = 24
| 15> end
| 16>
| 17>
| 18>                          ****END OF INPUT****
 Total Charge           Charge          ....    0
 Multiplicity           Mult            ....    1
 Number of Electrons    NEL             ....   38
Dispersion correction           -0.000442146
FINAL SINGLE POINT ENERGY     -1740.409519795668
Dispersion correction            ... done
Dispersion correction           -0.000442143
FINAL SINGLE POINT ENERGY     -1740.409538034451
Dispersion correction            ... done
Dispersion correction           -0.000442134
FINAL SINGLE POINT ENERGY     -1740.409585157980
Dispersion correction            ... done
Dispersion correction           -0.000442134
FINAL SINGLE POINT ENERGY     -1740.409585098692
Dispersion correction            ... done
                    ***********************HURRAY********************

CARTESIAN COORDINATES (ANGSTROEM)
---------------------------------
  Cu     0.000000    0.000000    0.419593
  F      0.000000    0.000000   -1.336740

 Multiplicity           Mult            ....    1
 Number of Electrons    NEL             ....   38
 Basis Dimension        Dim             ....  107

ORBITAL ENERGIES
----------------

  NO   OCC          E(Eh)            E(eV)
   0   2.0000    -322.790375     -8783.5727
   1   2.0000     -38.663386     -1052.0842
   2   2.0000     -33.840175      -920.8380
   3   2.0000     -33.840175      -920.8380
   4   2.0000     -33.839481      -920.8191
   5   2.0000     -24.505120      -666.8182
   6   2.0000      -4.268627      -116.1553
   7   2.0000      -2.763841       -75.2079
   8   2.0000      -2.758017       -75.0495
   9   2.0000      -2.758017       -75.0495
  10   2.0000      -1.036199       -28.1964
  11   2.0000      -0.365985        -9.9590
  12   2.0000      -0.326139        -8.8747
  13   2.0000      -0.326139        -8.8747
  14   2.0000      -0.266010        -7.2385
  15   2.0000      -0.266009        -7.2385
  16   2.0000      -0.246109        -6.6970
  17   2.0000      -0.246109        -6.6970
  18   2.0000      -0.237765        -6.4699
  19   0.0000      -0.125617        -3.4182
  20   0.0000      -0.006909        -0.1880
  21   0.0000      -0.006909        -0.1880
  22   0.0000       0.032297         0.8788
  23   0.0000       0.068477         1.8634

MULLIKEN ATOMIC CHARGES
-----------------------
   0 Cu:    0.660108
   1 F :   -0.660108
Sum of atomic charges:   -0.0000000

LOEWDIN ATOMIC CHARGES
----------------------
   0 Cu:    0.548975
   1 F :   -0.548975

  Mayer bond orders larger than 0.100000
B(  0-Cu,  1-F ) :   0.6995

Dispersion correction           -0.000442134
FINAL SINGLE POINT ENERGY     -1740.409585076489

DIPOLE MOMENT
-------------
                                X             Y             Z
Electronic contribution:     -0.00000       0.00000       2.80506
Nuclear contribution   :      0.00000       0.00000      -0.84466
                        -----------------------------------------
Total Dipole Moment    :     -0.00000       0.00000       1.96040
                        -----------------------------------------
Magnitude (a.u.)       :      1.96040
Magnitude (Debye)      :      4.98293

VIBRATIONAL FREQUENCIES
-----------------------

Scaling factor for frequencies =  1.000000000 (already applied!)

   0:         0.00 cm**-1
   1:         0.00 cm**-1
   2:         0.00 cm**-1
   3:         0.00 cm**-1
   4:         0.00 cm**-1
   5:       600.74 cm**-1

IR SPECTRUM
-----------

 Mode    freq (cm**-1)   T**2         TX         TY         TZ
-------------------------------------------------------------------
   5:       600.74   54.794558  (  0.000003  -0.000002   7.402335)

--------------------------
THERMOCHEMISTRY AT 298.15K
--------------------------

Temperature         ... 298.15 K
Pressure            ... 1.00 atm
Total Mass          ... 82.55 AMU
The molecule is recognized as being linear

Throughout the following assumptions are being made:
  (1) The electronic state is orbitally nondegenerate
  (2) There are no thermally accessible electronically excited states
  (3) Hindered rotations indicated by low frequency modes are not
      treated as such but are treated as vibrations and this may
      cause some error
  (4) All equations used are the standard statistical mechanics
      equations for an ideal gas
  (5) All vibrations are strictly harmonic

freq.     600.74  E(vib)   ...       0.10

------------
INNER ENERGY
------------

The inner energy is: U= E(el) + E(ZPE) + E(vib) + E(rot) + E(trans)
    E(el)   - is the total energy from the electronic structure calculation
              = E(kin-el) + E(nuc-el) + E(el-el) + E(nuc-nuc)
    E(ZPE)  - the the zero temperature vibrational energy from the frequency calculation
    E(vib)  - the the finite temperature correction to E(ZPE) due to population
              of excited vibrational states
    E(rot)  - is the rotational thermal energy
    E(trans)- is the translational thermal energy

Summary of contributions to the inner energy U:
Electronic energy                ...  -1740.40958508 Eh
Zero point energy                ...      0.00136858 Eh       0.86 kcal/mol
Thermal vibrational correction   ...      0.00015956 Eh       0.10 kcal/mol
Thermal rotational correction    ...      0.00094418 Eh       0.59 kcal/mol
Thermal translational correction ...      0.00141627 Eh       0.89 kcal/mol
-----------------------------------------------------------------------
Total thermal energy                  -1740.40569648 Eh

Summary of corrections to the electronic energy:
(perhaps to be used in another calculation)
Total thermal correction                  0.00252002 Eh       1.58 kcal/mol
Non-thermal (ZPE) correction              0.00136858 Eh       0.86 kcal/mol
-----------------------------------------------------------------------
Total correction                          0.00388859 Eh       2.44 kcal/mol

--------
ENTHALPY
--------

The enthalpy is H = U + kB*T
                kB is Boltzmann's constant
Total free energy                 ...  -1740.40569648 Eh
Thermal Enthalpy correction       ...      0.00094421 Eh       0.59 kcal/mol
-----------------------------------------------------------------------
Total Enthalpy                    ...  -1740.40475227 Eh

Note: Rotational entropy computed according to Herzberg
Infrared and Raman Spectra, Chapter V,1, Van Nostrand Reinhold, 1945
Point Group:  Cinfv, Symmetry Number:   1
Rotational constants in cm-1:     0.000000     0.373651     0.373651

Vibrational entropy computed according to the QRRHO of S. Grimme
Chem.Eur.J. 2012 18 9955

-------
ENTROPY
-------

The entropy contributions are T*S = T*(S(el)+S(vib)+S(rot)+S(trans))
     S(el)   - electronic entropy
     S(vib)  - vibrational entropy
     S(rot)  - rotational entropy
     S(trans)- translational entropy
The entropies will be listed as mutliplied by the temperature to get
units of energy

Electronic entropy                ...      0.00000000 Eh      0.00 kcal/mol
Vibrational entropy               ...      0.00021329 Eh      0.13 kcal/mol
Rotational entropy                ...      0.00690975 Eh      4.34 kcal/mol
Translational entropy             ...      0.01859962 Eh     11.67 kcal/mol
-----------------------------------------------------------------------
Final entropy term                ...      0.02572265 Eh     16.14 kcal/mol

In case the symmetry of your molecule has not been determined correctly
or in case you have a reason to use a different symmetry number we print
out the resulting rotational entropy values for sn=1,12 :
 --------------------------------------------------------
|  sn= 1 | S(rot)=             -inf Eh      -inf kcal/mol|
|  sn= 2 | S(rot)=             -inf Eh      -inf kcal/mol|
|  sn= 3 | S(rot)=             -inf Eh      -inf kcal/mol|
|  sn= 4 | S(rot)=             -inf Eh      -inf kcal/mol|
|  sn= 5 | S(rot)=             -inf Eh      -inf kcal/mol|
|  sn= 6 | S(rot)=             -inf Eh      -inf kcal/mol|
|  sn= 7 | S(rot)=             -inf Eh      -inf kcal/mol|
|  sn= 8 | S(rot)=             -inf Eh      -inf kcal/mol|
|  sn= 9 | S(rot)=             -inf Eh      -inf kcal/mol|
|  sn=10 | S(rot)=             -inf Eh      -inf kcal/mol|
|  sn=11 | S(rot)=             -inf Eh      -inf kcal/mol|
|  sn=12 | S(rot)=             -inf Eh      -inf kcal/mol|
 --------------------------------------------------------

-------------------
GIBBS FREE ENERGY
-------------------

The Gibbs free energy is G = H - T*S

Total enthalpy                    ...  -1740.40475227 Eh
Total entropy correction          ...     -0.02572265 Eh    -16.14 kcal/mol
-----------------------------------------------------------------------
Final Gibbs free energy         ...  -1740.43047492 Eh

For completeness - the Gibbs free energy minus the electronic energy
G-E(el)                           ...     -0.02088984 Eh    -13.11 kcal/mol

                             ****ORCA TERMINATED NORMALLY****
TOTAL RUN TIME: 0 days 0 hours 0 minutes 59 seconds 133 msec
