                         Program Version 4.2.0 -  RELEASE  -
|  1> #
|  2> # Cu02N0 TPSSh-D3BJ/Def2-TZVPPD
|  3> #
|  4> ! tpssh d3bj def2-tzvppd def2/jk grid4 nofinalgrid opt xyzfile numfreq
|  5>
|  6> *xyz 0 1
|  7> Cu       0.000000    0.000000    1.107490
|  8> Cu       0.000000    0.000000   -1.107490
|  9> *
| 10>
| 11> %maxcore 5000
| 12>
| 13> %pal
| 14> nprocs = 24
| 15> end
| 16>
| 17>
| 18>                          ****END OF INPUT****
 Total Charge           Charge          ....    0
 Multiplicity           Mult            ....    1
 Number of Electrons    NEL             ....   58
Dispersion correction           -0.001333451
FINAL SINGLE POINT ENERGY     -3281.054278486465
Dispersion correction            ... done
Dispersion correction           -0.001333473
FINAL SINGLE POINT ENERGY     -3281.054290809276
Dispersion correction            ... done
Dispersion correction           -0.001334419
FINAL SINGLE POINT ENERGY     -3281.054502720113
Dispersion correction            ... done
Dispersion correction           -0.001334509
FINAL SINGLE POINT ENERGY     -3281.054504690614
Dispersion correction            ... done
                    ***********************HURRAY********************

CARTESIAN COORDINATES (ANGSTROEM)
---------------------------------
  Cu     0.000000    0.000000    1.126384
  Cu     0.000000    0.000000   -1.126384

 Multiplicity           Mult            ....    1
 Number of Electrons    NEL             ....   58
 Basis Dimension        Dim             ....  134

ORBITAL ENERGIES
----------------

  NO   OCC          E(Eh)            E(eV)
   0   2.0000    -322.739856     -8782.1980
   1   2.0000    -322.739849     -8782.1978
   2   2.0000     -38.613042     -1050.7143
   3   2.0000     -38.613000     -1050.7132
   4   2.0000     -33.790099      -919.4753
   5   2.0000     -33.790096      -919.4752
   6   2.0000     -33.789414      -919.4567
   7   2.0000     -33.789414      -919.4567
   8   2.0000     -33.789408      -919.4565
   9   2.0000     -33.789408      -919.4565
  10   2.0000      -4.214695      -114.6877
  11   2.0000      -4.214159      -114.6731
  12   2.0000      -2.710736       -73.7629
  13   2.0000      -2.706120       -73.6373
  14   2.0000      -2.704607       -73.5961
  15   2.0000      -2.704607       -73.5961
  16   2.0000      -2.704181       -73.5845
  17   2.0000      -2.704181       -73.5845
  18   2.0000      -0.252658        -6.8752
  19   2.0000      -0.235230        -6.4009
  20   2.0000      -0.235230        -6.4009
  21   2.0000      -0.217764        -5.9257
  22   2.0000      -0.217758        -5.9255
  23   2.0000      -0.210007        -5.7146
  24   2.0000      -0.210000        -5.7144
  25   2.0000      -0.201875        -5.4933
  26   2.0000      -0.201875        -5.4933
  27   2.0000      -0.199333        -5.4241
  28   2.0000      -0.195014        -5.3066
  29   0.0000      -0.089843        -2.4447
  30   0.0000      -0.026495        -0.7210
  31   0.0000      -0.026495        -0.7210
  32   0.0000      -0.004072        -0.1108
  33   0.0000       0.038784         1.0554

MULLIKEN ATOMIC CHARGES
-----------------------
   0 Cu:   -0.000001
   1 Cu:    0.000001
Sum of atomic charges:   -0.0000000

LOEWDIN ATOMIC CHARGES
----------------------
   0 Cu:    0.000000
   1 Cu:   -0.000000

  Mayer bond orders larger than 0.100000
B(  0-Cu,  1-Cu) :   1.0938

Dispersion correction           -0.001334517
FINAL SINGLE POINT ENERGY     -3281.054504769294

DIPOLE MOMENT
-------------
                                X             Y             Z
Electronic contribution:     -0.00000       0.00000       0.00000
Nuclear contribution   :      0.00000       0.00000       0.00000
                        -----------------------------------------
Total Dipole Moment    :     -0.00000       0.00000       0.00000
                        -----------------------------------------
Magnitude (a.u.)       :      0.00000
Magnitude (Debye)      :      0.00000

VIBRATIONAL FREQUENCIES
-----------------------

Scaling factor for frequencies =  1.000000000 (already applied!)

   0:         0.00 cm**-1
   1:         0.00 cm**-1
   2:         0.00 cm**-1
   3:         0.00 cm**-1
   4:         0.00 cm**-1
   5:       257.07 cm**-1

IR SPECTRUM
-----------

 Mode    freq (cm**-1)   T**2         TX         TY         TZ
-------------------------------------------------------------------
   5:       257.07    0.000000  (  0.000019  -0.000032  -0.000090)

--------------------------
THERMOCHEMISTRY AT 298.15K
--------------------------

Temperature         ... 298.15 K
Pressure            ... 1.00 atm
Total Mass          ... 127.10 AMU
The molecule is recognized as being linear

Throughout the following assumptions are being made:
  (1) The electronic state is orbitally nondegenerate
  (2) There are no thermally accessible electronically excited states
  (3) Hindered rotations indicated by low frequency modes are not
      treated as such but are treated as vibrations and this may
      cause some error
  (4) All equations used are the standard statistical mechanics
      equations for an ideal gas
  (5) All vibrations are strictly harmonic

freq.     257.07  E(vib)   ...       0.30

------------
INNER ENERGY
------------

The inner energy is: U= E(el) + E(ZPE) + E(vib) + E(rot) + E(trans)
    E(el)   - is the total energy from the electronic structure calculation
              = E(kin-el) + E(nuc-el) + E(el-el) + E(nuc-nuc)
    E(ZPE)  - the the zero temperature vibrational energy from the frequency calculation
    E(vib)  - the the finite temperature correction to E(ZPE) due to population
              of excited vibrational states
    E(rot)  - is the rotational thermal energy
    E(trans)- is the translational thermal energy

Summary of contributions to the inner energy U:
Electronic energy                ...  -3281.05450477 Eh
Zero point energy                ...      0.00058565 Eh       0.37 kcal/mol
Thermal vibrational correction   ...      0.00047665 Eh       0.30 kcal/mol
Thermal rotational correction    ...      0.00094418 Eh       0.59 kcal/mol
Thermal translational correction ...      0.00141627 Eh       0.89 kcal/mol
-----------------------------------------------------------------------
Total thermal energy                  -3281.05108202 Eh

Summary of corrections to the electronic energy:
(perhaps to be used in another calculation)
Total thermal correction                  0.00283710 Eh       1.78 kcal/mol
Non-thermal (ZPE) correction              0.00058565 Eh       0.37 kcal/mol
-----------------------------------------------------------------------
Total correction                          0.00342275 Eh       2.15 kcal/mol

--------
ENTHALPY
--------

The enthalpy is H = U + kB*T
                kB is Boltzmann's constant
Total free energy                 ...  -3281.05108202 Eh
Thermal Enthalpy correction       ...      0.00094421 Eh       0.59 kcal/mol
-----------------------------------------------------------------------
Total Enthalpy                    ...  -3281.05013781 Eh

Note: Rotational entropy computed according to Herzberg
Infrared and Raman Spectra, Chapter V,1, Van Nostrand Reinhold, 1945
Point Group:  Dinfh, Symmetry Number:   2
Rotational constants in cm-1:     0.000000     0.104539     0.104539

Vibrational entropy computed according to the QRRHO of S. Grimme
Chem.Eur.J. 2012 18 9955

-------
ENTROPY
-------

The entropy contributions are T*S = T*(S(el)+S(vib)+S(rot)+S(trans))
     S(el)   - electronic entropy
     S(vib)  - vibrational entropy
     S(rot)  - rotational entropy
     S(trans)- translational entropy
The entropies will be listed as mutliplied by the temperature to get
units of energy

Electronic entropy                ...      0.00000000 Eh      0.00 kcal/mol
Vibrational entropy               ...      0.00080150 Eh      0.50 kcal/mol
Rotational entropy                ...      0.00745795 Eh      4.68 kcal/mol
Translational entropy             ...      0.01921087 Eh     12.05 kcal/mol
-----------------------------------------------------------------------
Final entropy term                ...      0.02747032 Eh     17.24 kcal/mol

In case the symmetry of your molecule has not been determined correctly
or in case you have a reason to use a different symmetry number we print
out the resulting rotational entropy values for sn=1,12 :
 --------------------------------------------------------
|  sn= 1 | S(rot)=             -inf Eh      -inf kcal/mol|
|  sn= 2 | S(rot)=             -inf Eh      -inf kcal/mol|
|  sn= 3 | S(rot)=             -inf Eh      -inf kcal/mol|
|  sn= 4 | S(rot)=             -inf Eh      -inf kcal/mol|
|  sn= 5 | S(rot)=             -inf Eh      -inf kcal/mol|
|  sn= 6 | S(rot)=             -inf Eh      -inf kcal/mol|
|  sn= 7 | S(rot)=             -inf Eh      -inf kcal/mol|
|  sn= 8 | S(rot)=             -inf Eh      -inf kcal/mol|
|  sn= 9 | S(rot)=             -inf Eh      -inf kcal/mol|
|  sn=10 | S(rot)=             -inf Eh      -inf kcal/mol|
|  sn=11 | S(rot)=             -inf Eh      -inf kcal/mol|
|  sn=12 | S(rot)=             -inf Eh      -inf kcal/mol|
 --------------------------------------------------------

-------------------
GIBBS FREE ENERGY
-------------------

The Gibbs free energy is G = H - T*S

Total enthalpy                    ...  -3281.05013781 Eh
Total entropy correction          ...     -0.02747032 Eh    -17.24 kcal/mol
-----------------------------------------------------------------------
Final Gibbs free energy         ...  -3281.07760813 Eh

For completeness - the Gibbs free energy minus the electronic energy
G-E(el)                           ...     -0.02310336 Eh    -14.50 kcal/mol

                             ****ORCA TERMINATED NORMALLY****
TOTAL RUN TIME: 0 days 0 hours 1 minutes 26 seconds 808 msec
