                         Program Version 4.2.0 -  RELEASE  -
|  1> #
|  2> # Cu03C1_D3H TPSSh-D3BJ/Def2-TZVPPD
|  3> #
|  4> ! tpssh d3bj def2-tzvppd def2/jk grid4 nofinalgrid opt xyzfile numfreq
|  5>
|  6> *xyz 1 1
|  7> Cu       0.000000    1.349261   -0.000000
|  8> Cu       1.168494   -0.674630    0.000000
|  9> Cu      -1.168494   -0.674630   -0.000000
| 10> *
| 11>
| 12> %maxcore 5000
| 13>
| 14> %pal
| 15> nprocs = 24
| 16> end
| 17>
| 18>
| 19>                          ****END OF INPUT****
 Total Charge           Charge          ....    1
 Multiplicity           Mult            ....    1
 Number of Electrons    NEL             ....   86
Dispersion correction           -0.003926121
FINAL SINGLE POINT ENERGY     -4921.383417237792
Dispersion correction            ... done
Dispersion correction           -0.003926071
FINAL SINGLE POINT ENERGY     -4921.383424559565
Dispersion correction            ... done
Dispersion correction           -0.003924325
FINAL SINGLE POINT ENERGY     -4921.383556877854
Dispersion correction            ... done
                    ***********************HURRAY********************

CARTESIAN COORDINATES (ANGSTROEM)
---------------------------------
  Cu    -0.000000    1.361954    0.000000
  Cu     1.178759   -0.680976    0.000000
  Cu    -1.178759   -0.680976    0.000000

 Multiplicity           Mult            ....    1
 Number of Electrons    NEL             ....   86
 Basis Dimension        Dim             ....  201

ORBITAL ENERGIES
----------------

  NO   OCC          E(Eh)            E(eV)
   0   2.0000    -322.962315     -8788.2514
   1   2.0000    -322.962312     -8788.2513
   2   2.0000    -322.962304     -8788.2511
   3   2.0000     -38.834320     -1056.7356
   4   2.0000     -38.834311     -1056.7353
   5   2.0000     -38.834267     -1056.7341
   6   2.0000     -34.011919      -925.5114
   7   2.0000     -34.011907      -925.5111
   8   2.0000     -34.011897      -925.5108
   9   2.0000     -34.011493      -925.4998
  10   2.0000     -34.011489      -925.4997
  11   2.0000     -34.011474      -925.4993
  12   2.0000     -34.009732      -925.4519
  13   2.0000     -34.009729      -925.4518
  14   2.0000     -34.009716      -925.4514
  15   2.0000      -4.436937      -120.7352
  16   2.0000      -4.436488      -120.7230
  17   2.0000      -4.436484      -120.7229
  18   2.0000      -2.932512       -79.7977
  19   2.0000      -2.930362       -79.7392
  20   2.0000      -2.930351       -79.7389
  21   2.0000      -2.928334       -79.6840
  22   2.0000      -2.928332       -79.6840
  23   2.0000      -2.928174       -79.6797
  24   2.0000      -2.925097       -79.5959
  25   2.0000      -2.924719       -79.5856
  26   2.0000      -2.924718       -79.5856
  27   2.0000      -0.491625       -13.3778
  28   2.0000      -0.463564       -12.6142
  29   2.0000      -0.463494       -12.6123
  30   2.0000      -0.461131       -12.5480
  31   2.0000      -0.451762       -12.2931
  32   2.0000      -0.444624       -12.0988
  33   2.0000      -0.444615       -12.0986
  34   2.0000      -0.428943       -11.6721
  35   2.0000      -0.428908       -11.6712
  36   2.0000      -0.424765       -11.5584
  37   2.0000      -0.424636       -11.5549
  38   2.0000      -0.424583       -11.5535
  39   2.0000      -0.424387       -11.5482
  40   2.0000      -0.423038       -11.5115
  41   2.0000      -0.423004       -11.5105
  42   2.0000      -0.411273       -11.1913
  43   0.0000      -0.282272        -7.6810
  44   0.0000      -0.282215        -7.6794
  45   0.0000      -0.218240        -5.9386
  46   0.0000      -0.181515        -4.9393
  47   0.0000      -0.163121        -4.4387

MULLIKEN ATOMIC CHARGES
-----------------------
   0 Cu:    0.333585
   1 Cu:    0.333208
   2 Cu:    0.333206
Sum of atomic charges:    1.0000000

LOEWDIN ATOMIC CHARGES
----------------------
   0 Cu:    0.333437
   1 Cu:    0.333281
   2 Cu:    0.333281

  Mayer bond orders larger than 0.100000
B(  0-Cu,  1-Cu) :   0.5739 B(  0-Cu,  2-Cu) :   0.5739 B(  1-Cu,  2-Cu) :   0.5745

Dispersion correction           -0.003924230
FINAL SINGLE POINT ENERGY     -4921.383557770200

DIPOLE MOMENT
-------------
                                X             Y             Z
Electronic contribution:      0.00000       0.00052       0.00000
Nuclear contribution   :     -0.00000      -0.00000       0.00000
                        -----------------------------------------
Total Dipole Moment    :      0.00000       0.00052       0.00000
                        -----------------------------------------
Magnitude (a.u.)       :      0.00052
Magnitude (Debye)      :      0.00133

VIBRATIONAL FREQUENCIES
-----------------------

Scaling factor for frequencies =  1.000000000 (already applied!)

   0:         0.00 cm**-1
   1:         0.00 cm**-1
   2:         0.00 cm**-1
   3:         0.00 cm**-1
   4:         0.00 cm**-1
   5:         0.00 cm**-1
   6:       176.70 cm**-1
   7:       176.85 cm**-1
   8:       251.45 cm**-1

IR SPECTRUM
-----------

 Mode    freq (cm**-1)   T**2         TX         TY         TZ
-------------------------------------------------------------------
   6:       176.70    1.422764  ( -1.192769   0.008133   0.000005)
   7:       176.85    1.628109  (  0.007596   1.275951  -0.000004)
   8:       251.45    0.000044  (  0.000025  -0.006620  -0.000003)

--------------------------
THERMOCHEMISTRY AT 298.15K
--------------------------

Temperature         ... 298.15 K
Pressure            ... 1.00 atm
Total Mass          ... 190.65 AMU

Throughout the following assumptions are being made:
  (1) The electronic state is orbitally nondegenerate
  (2) There are no thermally accessible electronically excited states
  (3) Hindered rotations indicated by low frequency modes are not
      treated as such but are treated as vibrations and this may
      cause some error
  (4) All equations used are the standard statistical mechanics
      equations for an ideal gas
  (5) All vibrations are strictly harmonic

freq.     176.70  E(vib)   ...       0.38
freq.     176.85  E(vib)   ...       0.38
freq.     251.45  E(vib)   ...       0.30

------------
INNER ENERGY
------------

The inner energy is: U= E(el) + E(ZPE) + E(vib) + E(rot) + E(trans)
    E(el)   - is the total energy from the electronic structure calculation
              = E(kin-el) + E(nuc-el) + E(el-el) + E(nuc-nuc)
    E(ZPE)  - the the zero temperature vibrational energy from the frequency calculation
    E(vib)  - the the finite temperature correction to E(ZPE) due to population
              of excited vibrational states
    E(rot)  - is the rotational thermal energy
    E(trans)- is the translational thermal energy

Summary of contributions to the inner energy U:
Electronic energy                ...  -4921.38355777 Eh
Zero point energy                ...      0.00137828 Eh       0.86 kcal/mol
Thermal vibrational correction   ...      0.00168059 Eh       1.05 kcal/mol
Thermal rotational correction    ...      0.00141627 Eh       0.89 kcal/mol
Thermal translational correction ...      0.00141627 Eh       0.89 kcal/mol
-----------------------------------------------------------------------
Total thermal energy                  -4921.37766636 Eh

Summary of corrections to the electronic energy:
(perhaps to be used in another calculation)
Total thermal correction                  0.00451314 Eh       2.83 kcal/mol
Non-thermal (ZPE) correction              0.00137828 Eh       0.86 kcal/mol
-----------------------------------------------------------------------
Total correction                          0.00589141 Eh       3.70 kcal/mol

--------
ENTHALPY
--------

The enthalpy is H = U + kB*T
                kB is Boltzmann's constant
Total free energy                 ...  -4921.37766636 Eh
Thermal Enthalpy correction       ...      0.00094421 Eh       0.59 kcal/mol
-----------------------------------------------------------------------
Total Enthalpy                    ...  -4921.37672215 Eh

Note: Rotational entropy computed according to Herzberg
Infrared and Raman Spectra, Chapter V,1, Van Nostrand Reinhold, 1945
Point Group:  C2v, Symmetry Number:   2
Rotational constants in cm-1:     0.095456     0.095338     0.047698

Vibrational entropy computed according to the QRRHO of S. Grimme
Chem.Eur.J. 2012 18 9955

-------
ENTROPY
-------

The entropy contributions are T*S = T*(S(el)+S(vib)+S(rot)+S(trans))
     S(el)   - electronic entropy
     S(vib)  - vibrational entropy
     S(rot)  - rotational entropy
     S(trans)- translational entropy
The entropies will be listed as mutliplied by the temperature to get
units of energy

Electronic entropy                ...      0.00000000 Eh      0.00 kcal/mol
Vibrational entropy               ...      0.00305829 Eh      1.92 kcal/mol
Rotational entropy                ...      0.01251141 Eh      7.85 kcal/mol
Translational entropy             ...      0.01978512 Eh     12.42 kcal/mol
-----------------------------------------------------------------------
Final entropy term                ...      0.03535482 Eh     22.19 kcal/mol

In case the symmetry of your molecule has not been determined correctly
or in case you have a reason to use a different symmetry number we print
out the resulting rotational entropy values for sn=1,12 :
 --------------------------------------------------------
|  sn= 1 | S(rot)=       0.01316587 Eh      8.26 kcal/mol|
|  sn= 2 | S(rot)=       0.01251141 Eh      7.85 kcal/mol|
|  sn= 3 | S(rot)=       0.01212858 Eh      7.61 kcal/mol|
|  sn= 4 | S(rot)=       0.01185695 Eh      7.44 kcal/mol|
|  sn= 5 | S(rot)=       0.01164627 Eh      7.31 kcal/mol|
|  sn= 6 | S(rot)=       0.01147412 Eh      7.20 kcal/mol|
|  sn= 7 | S(rot)=       0.01132858 Eh      7.11 kcal/mol|
|  sn= 8 | S(rot)=       0.01120250 Eh      7.03 kcal/mol|
|  sn= 9 | S(rot)=       0.01109129 Eh      6.96 kcal/mol|
|  sn=10 | S(rot)=       0.01099181 Eh      6.90 kcal/mol|
|  sn=11 | S(rot)=       0.01090182 Eh      6.84 kcal/mol|
|  sn=12 | S(rot)=       0.01081967 Eh      6.79 kcal/mol|
 --------------------------------------------------------

-------------------
GIBBS FREE ENERGY
-------------------

The Gibbs free energy is G = H - T*S

Total enthalpy                    ...  -4921.37672215 Eh
Total entropy correction          ...     -0.03535482 Eh    -22.19 kcal/mol
-----------------------------------------------------------------------
Final Gibbs free energy         ...  -4921.41207697 Eh

For completeness - the Gibbs free energy minus the electronic energy
G-E(el)                           ...     -0.02851920 Eh    -17.90 kcal/mol

                             ****ORCA TERMINATED NORMALLY****
TOTAL RUN TIME: 0 days 0 hours 4 minutes 14 seconds 424 msec
