                         Program Version 4.2.0 -  RELEASE  -
|  1> #
|  2> # Cu03N0_D3H TPSSh-D3BJ/Def2-TZVPPD
|  3> #
|  4> ! tpssh d3bj def2-tzvppd def2/jk grid4 nofinalgrid opt xyzfile numfreq
|  5>
|  6> *xyz 0 2
|  7> Cu       0.000000    1.346828   -0.000000
|  8> Cu       1.166387   -0.673414   -0.000000
|  9> Cu      -1.166387   -0.673414   -0.000000
| 10> *
| 11>
| 12> %maxcore 5000
| 13>
| 14> %pal
| 15> nprocs = 24
| 16> end
| 17>
| 18>
| 19>                          ****END OF INPUT****
 Total Charge           Charge          ....    0
 Multiplicity           Mult            ....    2
 Number of Electrons    NEL             ....   87
Dispersion correction           -0.003926484
FINAL SINGLE POINT ENERGY     -4921.591879111318
Dispersion correction            ... done
Dispersion correction           -0.003926423
FINAL SINGLE POINT ENERGY     -4921.591968533165
Dispersion correction            ... done
Dispersion correction           -0.003923820
FINAL SINGLE POINT ENERGY     -4921.593630620479
Dispersion correction            ... done
FINAL SINGLE POINT ENERGY     -4921.593649521339
FINAL SINGLE POINT ENERGY     -4921.593652357270
FINAL SINGLE POINT ENERGY     -4921.593674500202
Dispersion correction            ... done
Dispersion correction           -0.003922547
FINAL SINGLE POINT ENERGY     -4921.593687714504
Dispersion correction            ... done
Dispersion correction           -0.003922404
FINAL SINGLE POINT ENERGY     -4921.593693238667
Dispersion correction            ... done
                    ***********************HURRAY********************

CARTESIAN COORDINATES (ANGSTROEM)
---------------------------------
  Cu     0.000001    1.426887    0.000000
  Cu     1.134775   -0.713442    0.000000
  Cu    -1.134776   -0.713444    0.000000

 Multiplicity           Mult            ....    2
 Number of Electrons    NEL             ....   87
 Basis Dimension        Dim             ....  201

ORBITAL ENERGIES
----------------
                 SPIN UP ORBITALS
  NO   OCC          E(Eh)            E(eV)
   0   1.0000    -322.762392     -8782.8112
   1   1.0000    -322.762387     -8782.8111
   2   1.0000    -322.748828     -8782.4421
   3   1.0000     -38.636525     -1051.3533
   4   1.0000     -38.636496     -1051.3525
   5   1.0000     -38.624829     -1051.0350
   6   1.0000     -33.813728      -920.1183
   7   1.0000     -33.813726      -920.1183
   8   1.0000     -33.813160      -920.1029
   9   1.0000     -33.813152      -920.1026
  10   1.0000     -33.812189      -920.0764
  11   1.0000     -33.812184      -920.0763
  12   1.0000     -33.802295      -919.8072
  13   1.0000     -33.801731      -919.7919
  14   1.0000     -33.799240      -919.7241
  15   1.0000      -4.237831      -115.3173
  16   1.0000      -4.237330      -115.3036
  17   1.0000      -4.223906      -114.9383
  18   1.0000      -2.733855       -74.3920
  19   1.0000      -2.729674       -74.2782
  20   1.0000      -2.728385       -74.2431
  21   1.0000      -2.727792       -74.2270
  22   1.0000      -2.726574       -74.1938
  23   1.0000      -2.726181       -74.1832
  24   1.0000      -2.716624       -73.9231
  25   1.0000      -2.715753       -73.8994
  26   1.0000      -2.711043       -73.7712
  27   1.0000      -0.292408        -7.9568
  28   1.0000      -0.267724        -7.2851
  29   1.0000      -0.260611        -7.0916
  30   1.0000      -0.253567        -6.8999
  31   1.0000      -0.251795        -6.8517
  32   1.0000      -0.245555        -6.6819
  33   1.0000      -0.237756        -6.4697
  34   1.0000      -0.234070        -6.3694
  35   1.0000      -0.226907        -6.1744
  36   1.0000      -0.224980        -6.1220
  37   1.0000      -0.223690        -6.0869
  38   1.0000      -0.221211        -6.0195
  39   1.0000      -0.218020        -5.9326
  40   1.0000      -0.216580        -5.8934
  41   1.0000      -0.216472        -5.8905
  42   1.0000      -0.208741        -5.6801
  43   1.0000      -0.138207        -3.7608
  44   0.0000      -0.109899        -2.9905
  45   0.0000      -0.052792        -1.4366
  46   0.0000      -0.031939        -0.8691
  47   0.0000      -0.009315        -0.2535
  48   0.0000      -0.009246        -0.2516

                 SPIN DOWN ORBITALS
  NO   OCC          E(Eh)            E(eV)
   0   1.0000    -322.762201     -8782.8060
   1   1.0000    -322.762196     -8782.8059
   2   1.0000    -322.748225     -8782.4257
   3   1.0000     -38.636574     -1051.3546
   4   1.0000     -38.636544     -1051.3538
   5   1.0000     -38.624981     -1051.0392
   6   1.0000     -33.813708      -920.1178
   7   1.0000     -33.813704      -920.1177
   8   1.0000     -33.812995      -920.0984
   9   1.0000     -33.812988      -920.0982
  10   1.0000     -33.812384      -920.0817
  11   1.0000     -33.812379      -920.0816
  12   1.0000     -33.802012      -919.7995
  13   1.0000     -33.801980      -919.7986
  14   1.0000     -33.799740      -919.7377
  15   1.0000      -4.237755      -115.3152
  16   1.0000      -4.237254      -115.3016
  17   1.0000      -4.223693      -114.9325
  18   1.0000      -2.733457       -74.3811
  19   1.0000      -2.729612       -74.2765
  20   1.0000      -2.728317       -74.2413
  21   1.0000      -2.727413       -74.2167
  22   1.0000      -2.726777       -74.1994
  23   1.0000      -2.726388       -74.1888
  24   1.0000      -2.716820       -73.9284
  25   1.0000      -2.715095       -73.8815
  26   1.0000      -2.711237       -73.7765
  27   1.0000      -0.289109        -7.8670
  28   1.0000      -0.265200        -7.2165
  29   1.0000      -0.259913        -7.0726
  30   1.0000      -0.249879        -6.7995
  31   1.0000      -0.246706        -6.7132
  32   1.0000      -0.244120        -6.6428
  33   1.0000      -0.236411        -6.4331
  34   1.0000      -0.229114        -6.2345
  35   1.0000      -0.225895        -6.1469
  36   1.0000      -0.224243        -6.1020
  37   1.0000      -0.223348        -6.0776
  38   1.0000      -0.218173        -5.9368
  39   1.0000      -0.215590        -5.8665
  40   1.0000      -0.213502        -5.8097
  41   1.0000      -0.212074        -5.7708
  42   1.0000      -0.204523        -5.5654
  43   0.0000      -0.101990        -2.7753
  44   0.0000      -0.089047        -2.4231
  45   0.0000      -0.044201        -1.2028
  46   0.0000      -0.016967        -0.4617
  47   0.0000       0.004954         0.1348

MULLIKEN ATOMIC CHARGES AND SPIN POPULATIONS
--------------------------------------------
   0 Cu:   -0.053677    0.613543
   1 Cu:    0.026838    0.193224
   2 Cu:    0.026838    0.193233
Sum of atomic charges         :   -0.0000000

LOEWDIN ATOMIC CHARGES AND SPIN POPULATIONS
-------------------------------------------
   0 Cu:   -0.017052    0.418374
   1 Cu:    0.008526    0.290812
   2 Cu:    0.008526    0.290814

  Mayer bond orders larger than 0.100000
B(  0-Cu,  1-Cu) :   0.4643 B(  0-Cu,  2-Cu) :   0.4643 B(  1-Cu,  2-Cu) :   0.8493

Dispersion correction           -0.003922442
FINAL SINGLE POINT ENERGY     -4921.593693187615

DIPOLE MOMENT
-------------
                                X             Y             Z
Electronic contribution:      0.00000      -0.34748       0.00000
Nuclear contribution   :     -0.00000       0.00000       0.00000
                        -----------------------------------------
Total Dipole Moment    :      0.00000      -0.34748       0.00000
                        -----------------------------------------
Magnitude (a.u.)       :      0.34748
Magnitude (Debye)      :      0.88321

VIBRATIONAL FREQUENCIES
-----------------------

Scaling factor for frequencies =  1.000000000 (already applied!)

   0:         0.00 cm**-1
   1:         0.00 cm**-1
   2:         0.00 cm**-1
   3:         0.00 cm**-1
   4:         0.00 cm**-1
   5:         0.00 cm**-1
   6:      -104.28 cm**-1 ***imaginary mode***
   7:       182.80 cm**-1
   8:       262.03 cm**-1

IR SPECTRUM
-----------

 Mode    freq (cm**-1)   T**2         TX         TY         TZ
-------------------------------------------------------------------
   7:       182.80    0.105917  ( -0.000145  -0.325449   0.000002)
   8:       262.03    0.543077  (  0.000103  -0.736937   0.000009)

--------------------------
THERMOCHEMISTRY AT 298.15K
--------------------------

Temperature         ... 298.15 K
Pressure            ... 1.00 atm
Total Mass          ... 190.65 AMU

Throughout the following assumptions are being made:
  (1) The electronic state is orbitally nondegenerate
      but the spin degeneracy is treated
  (2) There are no thermally accessible electronically excited states
  (3) Hindered rotations indicated by low frequency modes are not
      treated as such but are treated as vibrations and this may
      cause some error
  (4) All equations used are the standard statistical mechanics
      equations for an ideal gas
  (5) All vibrations are strictly harmonic

freq.     182.80  E(vib)   ...       0.37
freq.     262.03  E(vib)   ...       0.29

------------
INNER ENERGY
------------

The inner energy is: U= E(el) + E(ZPE) + E(vib) + E(rot) + E(trans)
    E(el)   - is the total energy from the electronic structure calculation
              = E(kin-el) + E(nuc-el) + E(el-el) + E(nuc-nuc)
    E(ZPE)  - the the zero temperature vibrational energy from the frequency calculation
    E(vib)  - the the finite temperature correction to E(ZPE) due to population
              of excited vibrational states
    E(rot)  - is the rotational thermal energy
    E(trans)- is the translational thermal energy

Summary of contributions to the inner energy U:
Electronic energy                ...  -4921.59369318 Eh
Zero point energy                ...      0.00101339 Eh       0.64 kcal/mol
Thermal vibrational correction   ...      0.00105804 Eh       0.66 kcal/mol
Thermal rotational correction    ...      0.00141627 Eh       0.89 kcal/mol
Thermal translational correction ...      0.00141627 Eh       0.89 kcal/mol
-----------------------------------------------------------------------
Total thermal energy                  -4921.58878921 Eh

Summary of corrections to the electronic energy:
(perhaps to be used in another calculation)
Total thermal correction                  0.00389059 Eh       2.44 kcal/mol
Non-thermal (ZPE) correction              0.00101339 Eh       0.64 kcal/mol
-----------------------------------------------------------------------
Total correction                          0.00490398 Eh       3.08 kcal/mol

--------
ENTHALPY
--------

The enthalpy is H = U + kB*T
                kB is Boltzmann's constant
Total free energy                 ...  -4921.58878921 Eh
Thermal Enthalpy correction       ...      0.00094421 Eh       0.59 kcal/mol
-----------------------------------------------------------------------
Total Enthalpy                    ...  -4921.58784500 Eh

Note: Rotational entropy computed according to Herzberg
Infrared and Raman Spectra, Chapter V,1, Van Nostrand Reinhold, 1945
Point Group:  Cs, Symmetry Number:   1
Rotational constants in cm-1:     0.102999     0.086858     0.047121

Vibrational entropy computed according to the QRRHO of S. Grimme
Chem.Eur.J. 2012 18 9955

-------
ENTROPY
-------

The entropy contributions are T*S = T*(S(el)+S(vib)+S(rot)+S(trans))
     S(el)   - electronic entropy
     S(vib)  - vibrational entropy
     S(rot)  - rotational entropy
     S(trans)- translational entropy
The entropies will be listed as mutliplied by the temperature to get
units of energy

Electronic entropy                ...      0.00065446 Eh      0.41 kcal/mol
Vibrational entropy               ...      0.00187654 Eh      1.18 kcal/mol
Rotational entropy                ...      0.01317968 Eh      8.27 kcal/mol
Translational entropy             ...      0.01978512 Eh     12.42 kcal/mol
-----------------------------------------------------------------------
Final entropy term                ...      0.03549580 Eh     22.27 kcal/mol

In case the symmetry of your molecule has not been determined correctly
or in case you have a reason to use a different symmetry number we print
out the resulting rotational entropy values for sn=1,12 :
 --------------------------------------------------------
|  sn= 1 | S(rot)=       0.01317968 Eh      8.27 kcal/mol|
|  sn= 2 | S(rot)=       0.01252523 Eh      7.86 kcal/mol|
|  sn= 3 | S(rot)=       0.01214240 Eh      7.62 kcal/mol|
|  sn= 4 | S(rot)=       0.01187077 Eh      7.45 kcal/mol|
|  sn= 5 | S(rot)=       0.01166008 Eh      7.32 kcal/mol|
|  sn= 6 | S(rot)=       0.01148794 Eh      7.21 kcal/mol|
|  sn= 7 | S(rot)=       0.01134239 Eh      7.12 kcal/mol|
|  sn= 8 | S(rot)=       0.01121632 Eh      7.04 kcal/mol|
|  sn= 9 | S(rot)=       0.01110511 Eh      6.97 kcal/mol|
|  sn=10 | S(rot)=       0.01100563 Eh      6.91 kcal/mol|
|  sn=11 | S(rot)=       0.01091564 Eh      6.85 kcal/mol|
|  sn=12 | S(rot)=       0.01083348 Eh      6.80 kcal/mol|
 --------------------------------------------------------

-------------------
GIBBS FREE ENERGY
-------------------

The Gibbs free energy is G = H - T*S

Total enthalpy                    ...  -4921.58784500 Eh
Total entropy correction          ...     -0.03549580 Eh    -22.27 kcal/mol
-----------------------------------------------------------------------
Final Gibbs free energy         ...  -4921.62334080 Eh

For completeness - the Gibbs free energy minus the electronic energy
G-E(el)                           ...     -0.02964762 Eh    -18.60 kcal/mol

                             ****ORCA TERMINATED NORMALLY****
TOTAL RUN TIME: 0 days 0 hours 7 minutes 32 seconds 2 msec
