                         Program Version 4.2.0 -  RELEASE  -
|  1> #
|  2> # Cu03C1_LIN TPSSh-D3BJ/Def2-TZVPPD
|  3> #
|  4> ! tpssh d3bj def2-tzvppd def2/jk grid4 nofinalgrid opt xyzfile numfreq
|  5>
|  6> *xyz 1 1
|  7> Cu       0.000000    0.000000    0.000000
|  8> Cu       0.000000    0.000000    2.337165
|  9> Cu       0.000000    0.000000   -2.337165
| 10> *
| 11>
| 12> %maxcore 5000
| 13>
| 14> %pal
| 15> nprocs = 24
| 16> end
| 17>
| 18>
| 19>                          ****END OF INPUT****
 Total Charge           Charge          ....    1
 Multiplicity           Mult            ....    1
 Number of Electrons    NEL             ....   86
Dispersion correction           -0.003301026
FINAL SINGLE POINT ENERGY     -4921.320678318119
Dispersion correction            ... done
Dispersion correction           -0.003300829
FINAL SINGLE POINT ENERGY     -4921.320679084528
Dispersion correction            ... done
Dispersion correction           -0.003293287
FINAL SINGLE POINT ENERGY     -4921.320696083879
Dispersion correction            ... done
                    ***********************HURRAY********************

CARTESIAN COORDINATES (ANGSTROEM)
---------------------------------
  Cu    -0.000000   -0.000000   -0.000000
  Cu     0.000000    0.000000    2.345780
  Cu     0.000000    0.000000   -2.345780

 Multiplicity           Mult            ....    1
 Number of Electrons    NEL             ....   86
 Basis Dimension        Dim             ....  201

ORBITAL ENERGIES
----------------

  NO   OCC          E(Eh)            E(eV)
   0   2.0000    -322.961223     -8788.2217
   1   2.0000    -322.961221     -8788.2216
   2   2.0000    -322.927094     -8787.2930
   3   2.0000     -38.828291     -1056.5715
   4   2.0000     -38.828273     -1056.5710
   5   2.0000     -38.801893     -1055.8532
   6   2.0000     -34.007084      -925.3798
   7   2.0000     -34.007081      -925.3797
   8   2.0000     -34.004839      -925.3187
   9   2.0000     -34.004839      -925.3187
  10   2.0000     -34.004836      -925.3186
  11   2.0000     -34.004836      -925.3186
  12   2.0000     -33.979631      -924.6328
  13   2.0000     -33.977642      -924.5787
  14   2.0000     -33.977642      -924.5787
  15   2.0000      -4.433742      -120.6483
  16   2.0000      -4.433724      -120.6478
  17   2.0000      -4.402262      -119.7917
  18   2.0000      -2.928637       -79.6923
  19   2.0000      -2.928482       -79.6881
  20   2.0000      -2.924769       -79.5870
  21   2.0000      -2.924769       -79.5870
  22   2.0000      -2.924766       -79.5869
  23   2.0000      -2.924766       -79.5869
  24   2.0000      -2.898028       -78.8594
  25   2.0000      -2.890903       -78.6655
  26   2.0000      -2.890903       -78.6655
  27   2.0000      -0.472683       -12.8624
  28   2.0000      -0.447571       -12.1790
  29   2.0000      -0.447571       -12.1790
  30   2.0000      -0.442083       -12.0297
  31   2.0000      -0.439487       -11.9590
  32   2.0000      -0.439487       -11.9590
  33   2.0000      -0.434744       -11.8300
  34   2.0000      -0.434734       -11.8297
  35   2.0000      -0.434238       -11.8162
  36   2.0000      -0.434228       -11.8160
  37   2.0000      -0.404192       -10.9986
  38   2.0000      -0.398144       -10.8340
  39   2.0000      -0.398130       -10.8337
  40   2.0000      -0.397749       -10.8233
  41   2.0000      -0.397749       -10.8233
  42   2.0000      -0.383425       -10.4335
  43   0.0000      -0.337994        -9.1973
  44   0.0000      -0.236485        -6.4351
  45   0.0000      -0.199309        -5.4235
  46   0.0000      -0.199309        -5.4235
  47   0.0000      -0.169111        -4.6017

MULLIKEN ATOMIC CHARGES
-----------------------
   0 Cu:   -0.273704
   1 Cu:    0.636852
   2 Cu:    0.636852
Sum of atomic charges:    1.0000000

LOEWDIN ATOMIC CHARGES
----------------------
   0 Cu:    0.132001
   1 Cu:    0.434000
   2 Cu:    0.433999

  Mayer bond orders larger than 0.100000
B(  0-Cu,  1-Cu) :   0.5089 B(  0-Cu,  2-Cu) :   0.5089 B(  1-Cu,  2-Cu) :   0.2395

Dispersion correction           -0.003293126
FINAL SINGLE POINT ENERGY     -4921.320696186772

DIPOLE MOMENT
-------------
                                X             Y             Z
Electronic contribution:     -0.00000      -0.00000       0.00000
Nuclear contribution   :      0.00000       0.00000       0.00000
                        -----------------------------------------
Total Dipole Moment    :     -0.00000      -0.00000       0.00000
                        -----------------------------------------
Magnitude (a.u.)       :      0.00000
Magnitude (Debye)      :      0.00001

VIBRATIONAL FREQUENCIES
-----------------------

Scaling factor for frequencies =  1.000000000 (already applied!)

   0:         0.00 cm**-1
   1:         0.00 cm**-1
   2:         0.00 cm**-1
   3:         0.00 cm**-1
   4:         0.00 cm**-1
   5:         0.00 cm**-1
   6:       -85.40 cm**-1 ***imaginary mode***
   7:       140.51 cm**-1
   8:       236.95 cm**-1

IR SPECTRUM
-----------

 Mode    freq (cm**-1)   T**2         TX         TY         TZ
-------------------------------------------------------------------
   7:       140.51    0.000000  ( -0.000013   0.000010   0.000009)
   8:       236.95   26.168643  ( -0.000001  -0.000003  -5.115530)

--------------------------
THERMOCHEMISTRY AT 298.15K
--------------------------

Temperature         ... 298.15 K
Pressure            ... 1.00 atm
Total Mass          ... 190.65 AMU
The molecule is recognized as being linear

Throughout the following assumptions are being made:
  (1) The electronic state is orbitally nondegenerate
  (2) There are no thermally accessible electronically excited states
  (3) Hindered rotations indicated by low frequency modes are not
      treated as such but are treated as vibrations and this may
      cause some error
  (4) All equations used are the standard statistical mechanics
      equations for an ideal gas
  (5) All vibrations are strictly harmonic

freq.     140.51  E(vib)   ...       0.41
freq.     236.95  E(vib)   ...       0.32

------------
INNER ENERGY
------------

The inner energy is: U= E(el) + E(ZPE) + E(vib) + E(rot) + E(trans)
    E(el)   - is the total energy from the electronic structure calculation
              = E(kin-el) + E(nuc-el) + E(el-el) + E(nuc-nuc)
    E(ZPE)  - the the zero temperature vibrational energy from the frequency calculation
    E(vib)  - the the finite temperature correction to E(ZPE) due to population
              of excited vibrational states
    E(rot)  - is the rotational thermal energy
    E(trans)- is the translational thermal energy

Summary of contributions to the inner energy U:
Electronic energy                ...  -4921.32069619 Eh
Zero point energy                ...      0.00085993 Eh       0.54 kcal/mol
Thermal vibrational correction   ...      0.00116509 Eh       0.73 kcal/mol
Thermal rotational correction    ...      0.00094418 Eh       0.59 kcal/mol
Thermal translational correction ...      0.00141627 Eh       0.89 kcal/mol
-----------------------------------------------------------------------
Total thermal energy                  -4921.31631072 Eh

Summary of corrections to the electronic energy:
(perhaps to be used in another calculation)
Total thermal correction                  0.00352554 Eh       2.21 kcal/mol
Non-thermal (ZPE) correction              0.00085993 Eh       0.54 kcal/mol
-----------------------------------------------------------------------
Total correction                          0.00438547 Eh       2.75 kcal/mol

--------
ENTHALPY
--------

The enthalpy is H = U + kB*T
                kB is Boltzmann's constant
Total free energy                 ...  -4921.31631072 Eh
Thermal Enthalpy correction       ...      0.00094421 Eh       0.59 kcal/mol
-----------------------------------------------------------------------
Total Enthalpy                    ...  -4921.31536651 Eh

Note: Rotational entropy computed according to Herzberg
Infrared and Raman Spectra, Chapter V,1, Van Nostrand Reinhold, 1945
Point Group:  Dinfh, Symmetry Number:   2
Rotational constants in cm-1:     0.000000     0.024103     0.024103

Vibrational entropy computed according to the QRRHO of S. Grimme
Chem.Eur.J. 2012 18 9955

-------
ENTROPY
-------

The entropy contributions are T*S = T*(S(el)+S(vib)+S(rot)+S(trans))
     S(el)   - electronic entropy
     S(vib)  - vibrational entropy
     S(rot)  - rotational entropy
     S(trans)- translational entropy
The entropies will be listed as mutliplied by the temperature to get
units of energy

Electronic entropy                ...      0.00000000 Eh      0.00 kcal/mol
Vibrational entropy               ...      0.00217173 Eh      1.36 kcal/mol
Rotational entropy                ...      0.00884326 Eh      5.55 kcal/mol
Translational entropy             ...      0.01978512 Eh     12.42 kcal/mol
-----------------------------------------------------------------------
Final entropy term                ...      0.03080012 Eh     19.33 kcal/mol

In case the symmetry of your molecule has not been determined correctly
or in case you have a reason to use a different symmetry number we print
out the resulting rotational entropy values for sn=1,12 :
 --------------------------------------------------------
|  sn= 1 | S(rot)=      -0.00098150 Eh     -0.62 kcal/mol|
|  sn= 2 | S(rot)=      -0.00163596 Eh     -1.03 kcal/mol|
|  sn= 3 | S(rot)=      -0.00201879 Eh     -1.27 kcal/mol|
|  sn= 4 | S(rot)=      -0.00229042 Eh     -1.44 kcal/mol|
|  sn= 5 | S(rot)=      -0.00250110 Eh     -1.57 kcal/mol|
|  sn= 6 | S(rot)=      -0.00267325 Eh     -1.68 kcal/mol|
|  sn= 7 | S(rot)=      -0.00281879 Eh     -1.77 kcal/mol|
|  sn= 8 | S(rot)=      -0.00294487 Eh     -1.85 kcal/mol|
|  sn= 9 | S(rot)=      -0.00305608 Eh     -1.92 kcal/mol|
|  sn=10 | S(rot)=      -0.00315556 Eh     -1.98 kcal/mol|
|  sn=11 | S(rot)=      -0.00324555 Eh     -2.04 kcal/mol|
|  sn=12 | S(rot)=      -0.00332770 Eh     -2.09 kcal/mol|
 --------------------------------------------------------

-------------------
GIBBS FREE ENERGY
-------------------

The Gibbs free energy is G = H - T*S

Total enthalpy                    ...  -4921.31536651 Eh
Total entropy correction          ...     -0.03080012 Eh    -19.33 kcal/mol
-----------------------------------------------------------------------
Final Gibbs free energy         ...  -4921.34616663 Eh

For completeness - the Gibbs free energy minus the electronic energy
G-E(el)                           ...     -0.02547043 Eh    -15.98 kcal/mol

                             ****ORCA TERMINATED NORMALLY****
TOTAL RUN TIME: 0 days 0 hours 3 minutes 54 seconds 769 msec
