                         Program Version 4.2.0 -  RELEASE  -
|  1> #
|  2> # Ag01N0_F wB97M-V/Def2-TZVPPD
|  3> #
|  4> ! wb97m-v def2-tzvppd def2/jk grid4 nofinalgrid
|  5>
|  6> *xyz 0 1
|  7> Ag       0.000000    0.000000    0.317712
|  8> F        0.000000    0.000000   -1.659163
|  9> *
| 10>
| 11> %maxcore 5000
| 12>
| 13> %pal
| 14> nprocs = 24
| 15> end
| 16>
| 17>
| 18>                          ****END OF INPUT****

CARTESIAN COORDINATES (ANGSTROEM)
---------------------------------
  Ag     0.000000    0.000000    0.317712
  F      0.000000    0.000000   -1.659163

 Total Charge           Charge          ....    0
 Multiplicity           Mult            ....    1
 Number of Electrons    NEL             ....   28
 Basis Dimension        Dim             ....   96

ORBITAL ENERGIES
----------------

  NO   OCC          E(Eh)            E(eV)
   0   2.0000     -24.774972      -674.1613
   1   2.0000      -3.900550      -106.1394
   2   2.0000      -2.488336       -67.7111
   3   2.0000      -2.487643       -67.6922
   4   2.0000      -2.487643       -67.6922
   5   2.0000      -1.161038       -31.5935
   6   2.0000      -0.508246       -13.8301
   7   2.0000      -0.485286       -13.2053
   8   2.0000      -0.485286       -13.2053
   9   2.0000      -0.468721       -12.7546
  10   2.0000      -0.468721       -12.7546
  11   2.0000      -0.393292       -10.7020
  12   2.0000      -0.393292       -10.7020
  13   2.0000      -0.385836       -10.4991
  14   0.0000      -0.057309        -1.5595
  15   0.0000       0.032311         0.8792
  16   0.0000       0.032311         0.8792
  17   0.0000       0.063849         1.7374
  18   0.0000       0.121990         3.3195

MULLIKEN ATOMIC CHARGES
-----------------------
   0 Ag:    0.725519
   1 F :   -0.725519
Sum of atomic charges:   -0.0000000

LOEWDIN ATOMIC CHARGES
----------------------
   0 Ag:    0.727099
   1 F :   -0.727099

  Mayer bond orders larger than 0.100000
B(  0-Ag,  1-F ) :   0.4435

FINAL SINGLE POINT ENERGY      -246.777793723498

DIPOLE MOMENT
-------------
                                X             Y             Z
Electronic contribution:      0.00000       0.00000      20.33709
Nuclear contribution   :      0.00000       0.00000     -17.95816
                        -----------------------------------------
Total Dipole Moment    :      0.00000       0.00000       2.37893
                        -----------------------------------------
Magnitude (a.u.)       :      2.37893
Magnitude (Debye)      :      6.04676

Rotational constants in cm-1:     0.000000     0.267044     0.267044
Rotational constants in MHz :     0.000000  8005.762772  8005.762772

                             ****ORCA TERMINATED NORMALLY****
TOTAL RUN TIME: 0 days 0 hours 0 minutes 6 seconds 433 msec
