                         Program Version 4.2.0 -  RELEASE  -
|  1> #
|  2> # Ag01N0_H wB97M-V/Def2-TZVPPD
|  3> #
|  4> ! wb97m-v def2-tzvppd def2/jk grid4 nofinalgrid
|  5>
|  6> *xyz 0 1
|  7> Ag       0.000000    0.000000    0.033547
|  8> H        0.000000    0.000000   -1.576706
|  9> *
| 10>
| 11> %maxcore 5000
| 12>
| 13> %pal
| 14> nprocs = 24
| 15> end
| 16>
| 17>
| 18>                          ****END OF INPUT****

CARTESIAN COORDINATES (ANGSTROEM)
---------------------------------
  Ag     0.000000    0.000000    0.033547
  H      0.000000    0.000000   -1.576706

 Total Charge           Charge          ....    0
 Multiplicity           Mult            ....    1
 Number of Electrons    NEL             ....   20
 Basis Dimension        Dim             ....   73

ORBITAL ENERGIES
----------------

  NO   OCC          E(Eh)            E(eV)
   0   2.0000      -3.881611      -105.6240
   1   2.0000      -2.472528       -67.2809
   2   2.0000      -2.465137       -67.0798
   3   2.0000      -2.465137       -67.0798
   4   2.0000      -0.490611       -13.3502
   5   2.0000      -0.450225       -12.2513
   6   2.0000      -0.450225       -12.2513
   7   2.0000      -0.442537       -12.0420
   8   2.0000      -0.442537       -12.0420
   9   2.0000      -0.330980        -9.0064
  10   0.0000      -0.023238        -0.6323
  11   0.0000       0.035394         0.9631
  12   0.0000       0.035394         0.9631
  13   0.0000       0.102420         2.7870
  14   0.0000       0.139381         3.7928

MULLIKEN ATOMIC CHARGES
-----------------------
   0 Ag:    0.002544
   1 H :   -0.002544
Sum of atomic charges:    0.0000000

LOEWDIN ATOMIC CHARGES
----------------------
   0 Ag:    0.310215
   1 H :   -0.310215

  Mayer bond orders larger than 0.100000
B(  0-Ag,  1-H ) :   1.0558

FINAL SINGLE POINT ENERGY      -147.484481180118

DIPOLE MOMENT
-------------
                                X             Y             Z
Electronic contribution:      0.00000       0.00000       3.75878
Nuclear contribution   :      0.00000       0.00000      -2.47950
                        -----------------------------------------
Total Dipole Moment    :      0.00000       0.00000       1.27928
                        -----------------------------------------
Magnitude (a.u.)       :      1.27928
Magnitude (Debye)      :      3.25166

Rotational constants in cm-1:     0.000000     6.510099     6.510099
Rotational constants in MHz :     0.000000 195167.857171 195167.857171

                             ****ORCA TERMINATED NORMALLY****
TOTAL RUN TIME: 0 days 0 hours 0 minutes 5 seconds 108 msec
