                         Program Version 4.2.0 -  RELEASE  -
|  1> #
|  2> # Ag01N0 wB97M-V/Def2-TZVPPD
|  3> #
|  4> ! wb97m-v def2-tzvppd def2/jk grid4 nofinalgrid
|  5>
|  6> *xyz 0 2
|  7> Ag       0.000000    0.000000    0.000000
|  8> *
|  9>
| 10> %maxcore 5000
| 11>
| 12> %pal
| 13> nprocs = 24
| 14> end
| 15>
| 16>
| 17>                          ****END OF INPUT****

CARTESIAN COORDINATES (ANGSTROEM)
---------------------------------
  Ag     0.000000    0.000000    0.000000

 Total Charge           Charge          ....    0
 Multiplicity           Mult            ....    2
 Number of Electrons    NEL             ....   19
 Basis Dimension        Dim             ....   56

ORBITAL ENERGIES
----------------
                 SPIN UP ORBITALS
  NO   OCC          E(Eh)            E(eV)
   0   1.0000      -3.866495      -105.2127
   1   1.0000      -2.453120       -66.7528
   2   1.0000      -2.453120       -66.7528
   3   1.0000      -2.453120       -66.7528
   4   1.0000      -0.436310       -11.8726
   5   1.0000      -0.436310       -11.8726
   6   1.0000      -0.436310       -11.8726
   7   1.0000      -0.436310       -11.8726
   8   1.0000      -0.436310       -11.8726
   9   1.0000      -0.260971        -7.1014
  10   0.0000       0.036922         1.0047
  11   0.0000       0.036922         1.0047
  12   0.0000       0.036922         1.0047
  13   0.0000       0.132699         3.6109
  14   0.0000       0.248995         6.7755

                 SPIN DOWN ORBITALS
  NO   OCC          E(Eh)            E(eV)
   0   1.0000      -3.863730      -105.1375
   1   1.0000      -2.450320       -66.6766
   2   1.0000      -2.450320       -66.6766
   3   1.0000      -2.450320       -66.6766
   4   1.0000      -0.430458       -11.7134
   5   1.0000      -0.430458       -11.7134
   6   1.0000      -0.430458       -11.7134
   7   1.0000      -0.430458       -11.7134
   8   1.0000      -0.430458       -11.7134
   9   0.0000      -0.213431        -5.8078
  10   0.0000      -0.213431        -5.8078
  11   0.0000      -0.213431        -5.8077
  12   0.0000      -0.204131        -5.5547
  13   0.0000       0.034978         0.9518

MULLIKEN ATOMIC CHARGES AND SPIN POPULATIONS
--------------------------------------------
   0 Ag:    0.000000    1.000000
Sum of atomic charges         :    0.0000000

LOEWDIN ATOMIC CHARGES AND SPIN POPULATIONS
-------------------------------------------
   0 Ag:    0.000000    1.000000

FINAL SINGLE POINT ENERGY      -146.889141548569

DIPOLE MOMENT
-------------
                                X             Y             Z
Electronic contribution:      0.00000       0.00000       0.00000
Nuclear contribution   :      0.00000       0.00000       0.00000
                        -----------------------------------------
Total Dipole Moment    :      0.00000       0.00000       0.00000
                        -----------------------------------------
Magnitude (a.u.)       :      0.00000
Magnitude (Debye)      :      0.00000

Rotational constants in cm-1:     0.000000     0.000000     0.000000
Rotational constants in MHz :     0.000000     0.000000     0.000000

                             ****ORCA TERMINATED NORMALLY****
TOTAL RUN TIME: 0 days 0 hours 0 minutes 4 seconds 534 msec
