                         Program Version 4.2.0 -  RELEASE  -
|  1> #
|  2> # Ag02N0 wB97M-V/Def2-TZVPPD
|  3> #
|  4> ! wb97m-v def2-tzvppd def2/jk grid4 nofinalgrid
|  5>
|  6> *xyz 0 1
|  7> Ag       0.000000    0.000000    1.261821
|  8> Ag       0.000000    0.000000   -1.261821
|  9> *
| 10>
| 11> %maxcore 5000
| 12>
| 13> %pal
| 14> nprocs = 24
| 15> end
| 16>
| 17>
| 18>                          ****END OF INPUT****

CARTESIAN COORDINATES (ANGSTROEM)
---------------------------------
  Ag     0.000000    0.000000    1.261821
  Ag     0.000000    0.000000   -1.261821

 Total Charge           Charge          ....    0
 Multiplicity           Mult            ....    1
 Number of Electrons    NEL             ....   38
 Basis Dimension        Dim             ....  112

ORBITAL ENERGIES
----------------

  NO   OCC          E(Eh)            E(eV)
   0   2.0000      -3.853767      -104.8663
   1   2.0000      -3.853161      -104.8498
   2   2.0000      -2.445847       -66.5549
   3   2.0000      -2.439090       -66.3710
   4   2.0000      -2.439090       -66.3710
   5   2.0000      -2.438772       -66.3624
   6   2.0000      -2.438524       -66.3556
   7   2.0000      -2.438524       -66.3556
   8   2.0000      -0.462660       -12.5896
   9   2.0000      -0.445000       -12.1091
  10   2.0000      -0.445000       -12.1091
  11   2.0000      -0.423103       -11.5132
  12   2.0000      -0.423101       -11.5132
  13   2.0000      -0.414839       -11.2883
  14   2.0000      -0.414836       -11.2883
  15   2.0000      -0.401489       -10.9251
  16   2.0000      -0.401489       -10.9251
  17   2.0000      -0.393548       -10.7090
  18   2.0000      -0.271081        -7.3765
  19   0.0000      -0.028275        -0.7694
  20   0.0000       0.028291         0.7698
  21   0.0000       0.028291         0.7698
  22   0.0000       0.042952         1.1688
  23   0.0000       0.081272         2.2115

MULLIKEN ATOMIC CHARGES
-----------------------
   0 Ag:   -0.000001
   1 Ag:    0.000001
Sum of atomic charges:    0.0000000

LOEWDIN ATOMIC CHARGES
----------------------
   0 Ag:   -0.000000
   1 Ag:    0.000000

  Mayer bond orders larger than 0.100000
B(  0-Ag,  1-Ag) :   1.0265

FINAL SINGLE POINT ENERGY      -293.858989887530

DIPOLE MOMENT
-------------
                                X             Y             Z
Electronic contribution:      0.00000      -0.00000       0.00000
Nuclear contribution   :      0.00000       0.00000       0.00000
                        -----------------------------------------
Total Dipole Moment    :      0.00000      -0.00000       0.00000
                        -----------------------------------------
Magnitude (a.u.)       :      0.00000
Magnitude (Debye)      :      0.00000

Rotational constants in cm-1:     0.000000     0.049076     0.049076
Rotational constants in MHz :     0.000000  1471.266775  1471.266775

                             ****ORCA TERMINATED NORMALLY****
TOTAL RUN TIME: 0 days 0 hours 0 minutes 6 seconds 140 msec
