                         Program Version 4.2.0 -  RELEASE  -
|  1> #
|  2> # Ag03N0_LIN wB97M-V/Def2-TZVPPD
|  3> #
|  4> ! wb97m-v def2-tzvppd def2/jk grid4 nofinalgrid
|  5>
|  6> *xyz 0 2
|  7> Ag       0.000000    0.000000    0.000000
|  8> Ag       0.000000    0.000000    2.592532
|  9> Ag       0.000000    0.000000   -2.592532
| 10> *
| 11>
| 12> %maxcore 5000
| 13>
| 14> %pal
| 15> nprocs = 24
| 16> end
| 17>
| 18>
| 19>                          ****END OF INPUT****

CARTESIAN COORDINATES (ANGSTROEM)
---------------------------------
  Ag     0.000000    0.000000    0.000000
  Ag     0.000000    0.000000    2.592532
  Ag     0.000000    0.000000   -2.592532

 Total Charge           Charge          ....    0
 Multiplicity           Mult            ....    2
 Number of Electrons    NEL             ....   57
 Basis Dimension        Dim             ....  168

ORBITAL ENERGIES
----------------
                 SPIN UP ORBITALS
  NO   OCC          E(Eh)            E(eV)
   0   1.0000      -3.868418      -105.2650
   1   1.0000      -3.868414      -105.2649
   2   1.0000      -3.849367      -104.7466
   3   1.0000      -2.457811       -66.8804
   4   1.0000      -2.457004       -66.8585
   5   1.0000      -2.453929       -66.7748
   6   1.0000      -2.453929       -66.7748
   7   1.0000      -2.453926       -66.7747
   8   1.0000      -2.453926       -66.7747
   9   1.0000      -2.438104       -66.3442
  10   1.0000      -2.433795       -66.2269
  11   1.0000      -2.433795       -66.2269
  12   1.0000      -0.483034       -13.1440
  13   1.0000      -0.458043       -12.4640
  14   1.0000      -0.458043       -12.4640
  15   1.0000      -0.442268       -12.0347
  16   1.0000      -0.440241       -11.9796
  17   1.0000      -0.440241       -11.9796
  18   1.0000      -0.436488       -11.8774
  19   1.0000      -0.436487       -11.8774
  20   1.0000      -0.435450       -11.8492
  21   1.0000      -0.435449       -11.8492
  22   1.0000      -0.411583       -11.1997
  23   1.0000      -0.411582       -11.1997
  24   1.0000      -0.398975       -10.8567
  25   1.0000      -0.398975       -10.8567
  26   1.0000      -0.391425       -10.6512
  27   1.0000      -0.302752        -8.2383
  28   1.0000      -0.254631        -6.9289
  29   0.0000      -0.013587        -0.3697
  30   0.0000       0.017691         0.4814
  31   0.0000       0.017691         0.4814
  32   0.0000       0.041699         1.1347
  33   0.0000       0.051339         1.3970

                 SPIN DOWN ORBITALS
  NO   OCC          E(Eh)            E(eV)
   0   1.0000      -3.867171      -105.2311
   1   1.0000      -3.867167      -105.2310
   2   1.0000      -3.849832      -104.7593
   3   1.0000      -2.456545       -66.8460
   4   1.0000      -2.455732       -66.8239
   5   1.0000      -2.452790       -66.7438
   6   1.0000      -2.452790       -66.7438
   7   1.0000      -2.452765       -66.7431
   8   1.0000      -2.452765       -66.7431
   9   1.0000      -2.438102       -66.3441
  10   1.0000      -2.434519       -66.2466
  11   1.0000      -2.434519       -66.2466
  12   1.0000      -0.479066       -13.0360
  13   1.0000      -0.454729       -12.3738
  14   1.0000      -0.454729       -12.3738
  15   1.0000      -0.439241       -11.9523
  16   1.0000      -0.436781       -11.8854
  17   1.0000      -0.436781       -11.8854
  18   1.0000      -0.433107       -11.7854
  19   1.0000      -0.433107       -11.7854
  20   1.0000      -0.431855       -11.7514
  21   1.0000      -0.431854       -11.7514
  22   1.0000      -0.412212       -11.2169
  23   1.0000      -0.412212       -11.2169
  24   1.0000      -0.398577       -10.8458
  25   1.0000      -0.398577       -10.8458
  26   1.0000      -0.388124       -10.5614
  27   1.0000      -0.269602        -7.3362
  28   0.0000      -0.090782        -2.4703
  29   0.0000      -0.032242        -0.8774
  30   0.0000       0.003735         0.1016
  31   0.0000       0.003736         0.1017
  32   0.0000       0.017032         0.4635

MULLIKEN ATOMIC CHARGES AND SPIN POPULATIONS
--------------------------------------------
   0 Ag:    0.013721    0.031615
   1 Ag:   -0.006862    0.484191
   2 Ag:   -0.006859    0.484194
Sum of atomic charges         :   -0.0000000

LOEWDIN ATOMIC CHARGES AND SPIN POPULATIONS
-------------------------------------------
   0 Ag:   -0.204270    0.310543
   1 Ag:    0.102135    0.344728
   2 Ag:    0.102135    0.344729

  Mayer bond orders larger than 0.100000
B(  0-Ag,  1-Ag) :   0.6246 B(  0-Ag,  2-Ag) :   0.6246 B(  1-Ag,  2-Ag) :   0.1743

FINAL SINGLE POINT ENERGY      -440.780030594159

DIPOLE MOMENT
-------------
                                X             Y             Z
Electronic contribution:     -0.00000       0.00000      -0.00000
Nuclear contribution   :      0.00000       0.00000       0.00000
                        -----------------------------------------
Total Dipole Moment    :     -0.00000       0.00000      -0.00000
                        -----------------------------------------
Magnitude (a.u.)       :      0.00000
Magnitude (Debye)      :      0.00000

Rotational constants in cm-1:     0.000000     0.011626     0.011626
Rotational constants in MHz :     0.000000   348.528806   348.528806

                             ****ORCA TERMINATED NORMALLY****
TOTAL RUN TIME: 0 days 0 hours 0 minutes 10 seconds 766 msec
