                         Program Version 4.2.0 -  RELEASE  -
|  1> #
|  2> # Ag03N0_D3H wB97M-V/Def2-TZVPPD
|  3> #
|  4> ! wb97m-v def2-tzvppd def2/jk grid4 nofinalgrid
|  5>
|  6> *xyz 0 2
|  7> Ag       0.000000    1.533951   -0.000000
|  8> Ag       1.328441   -0.766976    0.000000
|  9> Ag      -1.328441   -0.766976   -0.000000
| 10> *
| 11>
| 12> %maxcore 5000
| 13>
| 14> %pal
| 15> nprocs = 24
| 16> end
| 17>
| 18>
| 19>                          ****END OF INPUT****

CARTESIAN COORDINATES (ANGSTROEM)
---------------------------------
  Ag     0.000000    1.533951   -0.000000
  Ag     1.328441   -0.766976    0.000000
  Ag    -1.328441   -0.766976   -0.000000

 Total Charge           Charge          ....    0
 Multiplicity           Mult            ....    2
 Number of Electrons    NEL             ....   57
 Basis Dimension        Dim             ....  168

ORBITAL ENERGIES
----------------
                 SPIN UP ORBITALS
  NO   OCC          E(Eh)            E(eV)
   0   1.0000      -3.877655      -105.5164
   1   1.0000      -3.877358      -105.5083
   2   1.0000      -3.856333      -104.9362
   3   1.0000      -2.468072       -67.1597
   4   1.0000      -2.464448       -67.0610
   5   1.0000      -2.463805       -67.0435
   6   1.0000      -2.462819       -67.0167
   7   1.0000      -2.462740       -67.0146
   8   1.0000      -2.462498       -67.0080
   9   1.0000      -2.443404       -66.4884
  10   1.0000      -2.442601       -66.4666
  11   1.0000      -2.440047       -66.3971
  12   1.0000      -0.490671       -13.3518
  13   1.0000      -0.475932       -12.9508
  14   1.0000      -0.468944       -12.7606
  15   1.0000      -0.467422       -12.7192
  16   1.0000      -0.453604       -12.3432
  17   1.0000      -0.452369       -12.3096
  18   1.0000      -0.446811       -12.1583
  19   1.0000      -0.432967       -11.7816
  20   1.0000      -0.428957       -11.6725
  21   1.0000      -0.426027       -11.5928
  22   1.0000      -0.417020       -11.3477
  23   1.0000      -0.415295       -11.3007
  24   1.0000      -0.411897       -11.2083
  25   1.0000      -0.411158       -11.1882
  26   1.0000      -0.397122       -10.8062
  27   1.0000      -0.331685        -9.0256
  28   1.0000      -0.195350        -5.3157
  29   0.0000      -0.045561        -1.2398
  30   0.0000       0.009847         0.2679
  31   0.0000       0.025858         0.7036
  32   0.0000       0.042234         1.1492
  33   0.0000       0.049085         1.3357

                 SPIN DOWN ORBITALS
  NO   OCC          E(Eh)            E(eV)
   0   1.0000      -3.876997      -105.4985
   1   1.0000      -3.876700      -105.4904
   2   1.0000      -3.854626      -104.8897
   3   1.0000      -2.467322       -67.1392
   4   1.0000      -2.463798       -67.0433
   5   1.0000      -2.462883       -67.0185
   6   1.0000      -2.462367       -67.0044
   7   1.0000      -2.462073       -66.9964
   8   1.0000      -2.461825       -66.9897
   9   1.0000      -2.441732       -66.4429
  10   1.0000      -2.440820       -66.4181
  11   1.0000      -2.438375       -66.3516
  12   1.0000      -0.488514       -13.2931
  13   1.0000      -0.473631       -12.8882
  14   1.0000      -0.467798       -12.7294
  15   1.0000      -0.464274       -12.6335
  16   1.0000      -0.451190       -12.2775
  17   1.0000      -0.450720       -12.2647
  18   1.0000      -0.445245       -12.1157
  19   1.0000      -0.431789       -11.7496
  20   1.0000      -0.428482       -11.6596
  21   1.0000      -0.425273       -11.5723
  22   1.0000      -0.413868       -11.2619
  23   1.0000      -0.412491       -11.2245
  24   1.0000      -0.408664       -11.1203
  25   1.0000      -0.407097       -11.0777
  26   1.0000      -0.393158       -10.6984
  27   1.0000      -0.314131        -8.5479
  28   0.0000      -0.070365        -1.9147
  29   0.0000      -0.058535        -1.5928
  30   0.0000      -0.024802        -0.6749
  31   0.0000      -0.006301        -0.1715
  32   0.0000       0.007785         0.2119

MULLIKEN ATOMIC CHARGES AND SPIN POPULATIONS
--------------------------------------------
   0 Ag:   -0.165019    0.515607
   1 Ag:    0.082516    0.242187
   2 Ag:    0.082503    0.242206
Sum of atomic charges         :   -0.0000000

LOEWDIN ATOMIC CHARGES AND SPIN POPULATIONS
-------------------------------------------
   0 Ag:   -0.083865    0.464531
   1 Ag:    0.041935    0.267730
   2 Ag:    0.041930    0.267739

  Mayer bond orders larger than 0.100000
B(  0-Ag,  1-Ag) :   0.4872 B(  0-Ag,  2-Ag) :   0.4872 B(  1-Ag,  2-Ag) :   0.7275

FINAL SINGLE POINT ENERGY      -440.778547566985

DIPOLE MOMENT
-------------
                                X             Y             Z
Electronic contribution:      0.00002      -0.48150      -0.00000
Nuclear contribution   :      0.00000       0.00000       0.00000
                        -----------------------------------------
Total Dipole Moment    :      0.00002      -0.48150      -0.00000
                        -----------------------------------------
Magnitude (a.u.)       :      0.48150
Magnitude (Debye)      :      1.22387

Rotational constants in cm-1:     0.044277     0.044277     0.022139
Rotational constants in MHz :  1327.402110  1327.401756   663.700966

                             ****ORCA TERMINATED NORMALLY****
TOTAL RUN TIME: 0 days 0 hours 0 minutes 11 seconds 441 msec
