                         Program Version 4.2.0 -  RELEASE  -
|  1> #
|  2> # Ag03C1_D3H wB97M-V/Def2-TZVPPD
|  3> #
|  4> ! wb97m-v def2-tzvppd def2/jk grid4 nofinalgrid
|  5>
|  6> *xyz 1 1
|  7> Ag       0.000000    1.529877    0.000000
|  8> Ag       1.324912   -0.764938    0.000000
|  9> Ag      -1.324912   -0.764938    0.000000
| 10> *
| 11>
| 12> %maxcore 5000
| 13>
| 14> %pal
| 15> nprocs = 24
| 16> end
| 17>
| 18>
| 19>                          ****END OF INPUT****

CARTESIAN COORDINATES (ANGSTROEM)
---------------------------------
  Ag     0.000000    1.529877    0.000000
  Ag     1.324912   -0.764938    0.000000
  Ag    -1.324912   -0.764938    0.000000

 Total Charge           Charge          ....    1
 Multiplicity           Mult            ....    1
 Number of Electrons    NEL             ....   56
 Basis Dimension        Dim             ....  168

ORBITAL ENERGIES
----------------

  NO   OCC          E(Eh)            E(eV)
   0   2.0000      -4.058800      -110.4456
   1   2.0000      -4.058339      -110.4330
   2   2.0000      -4.058337      -110.4330
   3   2.0000      -2.650036       -72.1111
   4   2.0000      -2.647462       -72.0411
   5   2.0000      -2.647458       -72.0410
   6   2.0000      -2.644523       -71.9611
   7   2.0000      -2.644131       -71.9505
   8   2.0000      -2.644126       -71.9503
   9   2.0000      -2.643584       -71.9356
  10   2.0000      -2.643113       -71.9228
  11   2.0000      -2.643110       -71.9227
  12   2.0000      -0.676220       -18.4009
  13   2.0000      -0.659165       -17.9368
  14   2.0000      -0.659161       -17.9367
  15   2.0000      -0.654050       -17.7976
  16   2.0000      -0.638881       -17.3848
  17   2.0000      -0.635531       -17.2937
  18   2.0000      -0.635520       -17.2934
  19   2.0000      -0.614927       -16.7330
  20   2.0000      -0.614926       -16.7330
  21   2.0000      -0.611493       -16.6396
  22   2.0000      -0.607596       -16.5335
  23   2.0000      -0.607568       -16.5328
  24   2.0000      -0.606794       -16.5117
  25   2.0000      -0.606775       -16.5112
  26   2.0000      -0.586009       -15.9461
  27   2.0000      -0.496118       -13.5001
  28   0.0000      -0.198708        -5.4071
  29   0.0000      -0.198707        -5.4071
  30   0.0000      -0.143849        -3.9143
  31   0.0000      -0.116828        -3.1791
  32   0.0000      -0.098008        -2.6669

MULLIKEN ATOMIC CHARGES
-----------------------
   0 Ag:    0.333359
   1 Ag:    0.333322
   2 Ag:    0.333320
Sum of atomic charges:    1.0000000

LOEWDIN ATOMIC CHARGES
----------------------
   0 Ag:    0.333342
   1 Ag:    0.333329
   2 Ag:    0.333329

  Mayer bond orders larger than 0.100000
B(  0-Ag,  1-Ag) :   0.5211 B(  0-Ag,  2-Ag) :   0.5212 B(  1-Ag,  2-Ag) :   0.5211

FINAL SINGLE POINT ENERGY      -440.592687692420

DIPOLE MOMENT
-------------
                                X             Y             Z
Electronic contribution:     -0.00000       0.00002      -0.00000
Nuclear contribution   :      0.00000       0.00000       0.00000
                        -----------------------------------------
Total Dipole Moment    :     -0.00000       0.00002      -0.00000
                        -----------------------------------------
Magnitude (a.u.)       :      0.00002
Magnitude (Debye)      :      0.00004

Rotational constants in cm-1:     0.044514     0.044514     0.022257
Rotational constants in MHz :  1334.482437  1334.482320   667.241189

                             ****ORCA TERMINATED NORMALLY****
TOTAL RUN TIME: 0 days 0 hours 0 minutes 9 seconds 527 msec
