                         Program Version 4.2.0 -  RELEASE  -
|  1> #
|  2> # Ag03C1_LIN wB97M-V/Def2-TZVPPD
|  3> #
|  4> ! wb97m-v def2-tzvppd def2/jk grid4 nofinalgrid
|  5>
|  6> *xyz 1 1
|  7> Ag       0.000000    0.000000    0.000000
|  8> Ag       0.000000    0.000000    2.629319
|  9> Ag       0.000000    0.000000   -2.629319
| 10> *
| 11>
| 12> %maxcore 5000
| 13>
| 14> %pal
| 15> nprocs = 24
| 16> end
| 17>
| 18>
| 19>                          ****END OF INPUT****

CARTESIAN COORDINATES (ANGSTROEM)
---------------------------------
  Ag     0.000000    0.000000    0.000000
  Ag     0.000000    0.000000    2.629319
  Ag     0.000000    0.000000   -2.629319

 Total Charge           Charge          ....    1
 Multiplicity           Mult            ....    1
 Number of Electrons    NEL             ....   56
 Basis Dimension        Dim             ....  168

ORBITAL ENERGIES
----------------

  NO   OCC          E(Eh)            E(eV)
   0   2.0000      -4.067220      -110.6747
   1   2.0000      -4.067220      -110.6747
   2   2.0000      -4.017293      -109.3161
   3   2.0000      -2.656468       -72.2862
   4   2.0000      -2.656255       -72.2804
   5   2.0000      -2.654209       -72.2247
   6   2.0000      -2.654209       -72.2247
   7   2.0000      -2.654185       -72.2240
   8   2.0000      -2.654185       -72.2240
   9   2.0000      -2.608549       -70.9822
  10   2.0000      -2.600828       -70.7721
  11   2.0000      -2.600828       -70.7721
  12   2.0000      -0.668900       -18.2017
  13   2.0000      -0.647192       -17.6110
  14   2.0000      -0.647192       -17.6110
  15   2.0000      -0.640570       -17.4308
  16   2.0000      -0.638252       -17.3677
  17   2.0000      -0.638252       -17.3677
  18   2.0000      -0.634827       -17.2745
  19   2.0000      -0.634827       -17.2745
  20   2.0000      -0.634494       -17.2655
  21   2.0000      -0.634494       -17.2654
  22   2.0000      -0.578387       -15.7387
  23   2.0000      -0.578385       -15.7387
  24   2.0000      -0.577750       -15.7214
  25   2.0000      -0.577750       -15.7214
  26   2.0000      -0.571467       -15.5504
  27   2.0000      -0.442824       -12.0499
  28   0.0000      -0.254098        -6.9144
  29   0.0000      -0.159822        -4.3490
  30   0.0000      -0.127945        -3.4816
  31   0.0000      -0.127945        -3.4816
  32   0.0000      -0.099783        -2.7152

MULLIKEN ATOMIC CHARGES
-----------------------
   0 Ag:   -0.126650
   1 Ag:    0.563327
   2 Ag:    0.563323
Sum of atomic charges:    1.0000000

LOEWDIN ATOMIC CHARGES
----------------------
   0 Ag:    0.100363
   1 Ag:    0.449819
   2 Ag:    0.449818

  Mayer bond orders larger than 0.100000
B(  0-Ag,  1-Ag) :   0.5508 B(  0-Ag,  2-Ag) :   0.5508 B(  1-Ag,  2-Ag) :   0.2109

FINAL SINGLE POINT ENERGY      -440.530956140084

DIPOLE MOMENT
-------------
                                X             Y             Z
Electronic contribution:      0.00000      -0.00000      -0.00000
Nuclear contribution   :      0.00000       0.00000       0.00000
                        -----------------------------------------
Total Dipole Moment    :      0.00000      -0.00000      -0.00000
                        -----------------------------------------
Magnitude (a.u.)       :      0.00000
Magnitude (Debye)      :      0.00000

Rotational constants in cm-1:     0.000000     0.011303     0.011303
Rotational constants in MHz :     0.000000   338.844445   338.844445

                             ****ORCA TERMINATED NORMALLY****
TOTAL RUN TIME: 0 days 0 hours 0 minutes 8 seconds 658 msec
