                         Program Version 4.2.0 -  RELEASE  -
|  1> #
|  2> # Ag04N0 wB97M-V/Def2-TZVPPD
|  3> #
|  4> ! wb97m-v def2-tzvppd def2/jk grid4 nofinalgrid
|  5>
|  6> *xyz 0 1
|  7> Ag      -1.015022   -0.433109    0.700282
|  8> Ag       0.974659   -2.209777    0.043294
|  9> Ag       1.013798    0.433158   -0.699441
| 10> Ag      -0.973435    2.209727   -0.044135
| 11> *
| 12>
| 13> %maxcore 5000
| 14>
| 15> %pal
| 16> nprocs = 24
| 17> end
| 18>
| 19>
| 20>                          ****END OF INPUT****

CARTESIAN COORDINATES (ANGSTROEM)
---------------------------------
  Ag    -1.015022   -0.433109    0.700282
  Ag     0.974659   -2.209777    0.043294
  Ag     1.013798    0.433158   -0.699441
  Ag    -0.973435    2.209727   -0.044135

 Total Charge           Charge          ....    0
 Multiplicity           Mult            ....    1
 Number of Electrons    NEL             ....   76
 Basis Dimension        Dim             ....  224

ORBITAL ENERGIES
----------------

  NO   OCC          E(Eh)            E(eV)
   0   2.0000      -3.875217      -105.4500
   1   2.0000      -3.874837      -105.4397
   2   2.0000      -3.847421      -104.6937
   3   2.0000      -3.847371      -104.6923
   4   2.0000      -2.466215       -67.1091
   5   2.0000      -2.461194       -66.9725
   6   2.0000      -2.460623       -66.9569
   7   2.0000      -2.460616       -66.9568
   8   2.0000      -2.460259       -66.9471
   9   2.0000      -2.460183       -66.9450
  10   2.0000      -2.435004       -66.2598
  11   2.0000      -2.434905       -66.2571
  12   2.0000      -2.433290       -66.2132
  13   2.0000      -2.433226       -66.2114
  14   2.0000      -2.431501       -66.1645
  15   2.0000      -2.431453       -66.1632
  16   2.0000      -0.484450       -13.1826
  17   2.0000      -0.483544       -13.1579
  18   2.0000      -0.466361       -12.6903
  19   2.0000      -0.462084       -12.5740
  20   2.0000      -0.458345       -12.4722
  21   2.0000      -0.454721       -12.3736
  22   2.0000      -0.442573       -12.0430
  23   2.0000      -0.439272       -11.9532
  24   2.0000      -0.425589       -11.5809
  25   2.0000      -0.424167       -11.5422
  26   2.0000      -0.417196       -11.3525
  27   2.0000      -0.412657       -11.2290
  28   2.0000      -0.412256       -11.2180
  29   2.0000      -0.411395       -11.1946
  30   2.0000      -0.405737       -11.0407
  31   2.0000      -0.405578       -11.0363
  32   2.0000      -0.405451       -11.0329
  33   2.0000      -0.402561       -10.9542
  34   2.0000      -0.399057       -10.8589
  35   2.0000      -0.386195       -10.5089
  36   2.0000      -0.333630        -9.0785
  37   2.0000      -0.230575        -6.2743
  38   0.0000      -0.041888        -1.1398
  39   0.0000      -0.008535        -0.2322
  40   0.0000       0.006444         0.1754
  41   0.0000       0.033077         0.9001
  42   0.0000       0.033803         0.9198

MULLIKEN ATOMIC CHARGES
-----------------------
   0 Ag:    0.103059
   1 Ag:   -0.102955
   2 Ag:    0.102687
   3 Ag:   -0.102791
Sum of atomic charges:   -0.0000000

LOEWDIN ATOMIC CHARGES
----------------------
   0 Ag:   -0.092422
   1 Ag:    0.092772
   2 Ag:   -0.093253
   3 Ag:    0.092904

  Mayer bond orders larger than 0.100000
B(  0-Ag,  1-Ag) :   0.5177 B(  0-Ag,  2-Ag) :   0.4497 B(  0-Ag,  3-Ag) :   0.5181
B(  1-Ag,  2-Ag) :   0.5183 B(  1-Ag,  3-Ag) :   0.1173 B(  2-Ag,  3-Ag) :   0.5182

FINAL SINGLE POINT ENERGY      -587.762803612578

DIPOLE MOMENT
-------------
                                X             Y             Z
Electronic contribution:     -0.00149       0.00027       0.00078
Nuclear contribution   :      0.00000       0.00000       0.00000
                        -----------------------------------------
Total Dipole Moment    :     -0.00149       0.00027       0.00078
                        -----------------------------------------
Magnitude (a.u.)       :      0.00171
Magnitude (Debye)      :      0.00434

Rotational constants in cm-1:     0.045790     0.013394     0.010363
Rotational constants in MHz :  1372.764620   401.554164   310.676613

                             ****ORCA TERMINATED NORMALLY****
TOTAL RUN TIME: 0 days 0 hours 0 minutes 14 seconds 249 msec
