                         Program Version 4.2.0 -  RELEASE  -
|  1> #
|  2> # Ag04C2_NH3_F wB97M-V/Def2-TZVPPD
|  3> #
|  4> ! wb97m-v def2-tzvppd def2/jk grid4 nofinalgrid
|  5>
|  6> *xyz 2 1
|  7> Ag       0.000000    1.593354   -0.403942
|  8> Ag       1.379885   -0.796677   -0.403942
|  9> Ag      -1.379885   -0.796677   -0.403942
| 10> Ag       0.000000    0.000000    1.894943
| 11> N        0.000000    0.000000   -3.082630
| 12> H        0.808649    0.466874   -3.509356
| 13> H       -0.000000   -0.933748   -3.509356
| 14> H       -0.808649    0.466874   -3.509356
| 15> *
| 16>
| 17> %maxcore 5000
| 18>
| 19> %pal
| 20> nprocs = 24
| 21> end
| 22>
| 23>
| 24>                          ****END OF INPUT****

CARTESIAN COORDINATES (ANGSTROEM)
---------------------------------
  Ag     0.000000    1.593354   -0.403942
  Ag     1.379885   -0.796677   -0.403942
  Ag    -1.379885   -0.796677   -0.403942
  Ag     0.000000    0.000000    1.894943
  N      0.000000    0.000000   -3.082630
  H      0.808649    0.466874   -3.509356
  H     -0.000000   -0.933748   -3.509356
  H     -0.808649    0.466874   -3.509356

 Total Charge           Charge          ....    2
 Multiplicity           Mult            ....    1
 Number of Electrons    NEL             ....   84
 Basis Dimension        Dim             ....  312

ORBITAL ENERGIES
----------------

  NO   OCC          E(Eh)            E(eV)
   0   2.0000     -14.799504      -402.7150
   1   2.0000      -4.216769      -114.7441
   2   2.0000      -4.216514      -114.7372
   3   2.0000      -4.216511      -114.7371
   4   2.0000      -4.210244      -114.5666
   5   2.0000      -2.806728       -76.3750
   6   2.0000      -2.804949       -76.3265
   7   2.0000      -2.804948       -76.3265
   8   2.0000      -2.803212       -76.2793
   9   2.0000      -2.803207       -76.2791
  10   2.0000      -2.802974       -76.2728
  11   2.0000      -2.802873       -76.2701
  12   2.0000      -2.801936       -76.2445
  13   2.0000      -2.801933       -76.2445
  14   2.0000      -2.797528       -76.1246
  15   2.0000      -2.796367       -76.0930
  16   2.0000      -2.796366       -76.0930
  17   2.0000      -1.281760       -34.8785
  18   2.0000      -0.866173       -23.5698
  19   2.0000      -0.866171       -23.5697
  20   2.0000      -0.838979       -22.8298
  21   2.0000      -0.819235       -22.2925
  22   2.0000      -0.815451       -22.1896
  23   2.0000      -0.815434       -22.1891
  24   2.0000      -0.807381       -21.9700
  25   2.0000      -0.807380       -21.9699
  26   2.0000      -0.797429       -21.6991
  27   2.0000      -0.791237       -21.5307
  28   2.0000      -0.791231       -21.5305
  29   2.0000      -0.772771       -21.0282
  30   2.0000      -0.771804       -21.0019
  31   2.0000      -0.771799       -21.0017
  32   2.0000      -0.769458       -20.9380
  33   2.0000      -0.769444       -20.9376
  34   2.0000      -0.767700       -20.8902
  35   2.0000      -0.767700       -20.8902
  36   2.0000      -0.767369       -20.8812
  37   2.0000      -0.749159       -20.3857
  38   2.0000      -0.747287       -20.3347
  39   2.0000      -0.747274       -20.3344
  40   2.0000      -0.724421       -19.7125
  41   2.0000      -0.648531       -17.6474
  42   0.0000      -0.345592        -9.4040
  43   0.0000      -0.345586        -9.4039
  44   0.0000      -0.329930        -8.9779
  45   0.0000      -0.254499        -6.9253
  46   0.0000      -0.236154        -6.4261

MULLIKEN ATOMIC CHARGES
-----------------------
   0 Ag:    0.464567
   1 Ag:    0.464866
   2 Ag:    0.464864
   3 Ag:    0.461734
   4 N :   -0.377052
   5 H :    0.173608
   6 H :    0.173807
   7 H :    0.173606
Sum of atomic charges:    2.0000000

LOEWDIN ATOMIC CHARGES
----------------------
   0 Ag:    0.482303
   1 Ag:    0.482332
   2 Ag:    0.482332
   3 Ag:    0.472213
   4 N :    0.410154
   5 H :   -0.109780
   6 H :   -0.109774
   7 H :   -0.109780

  Mayer bond orders larger than 0.100000
B(  0-Ag,  1-Ag) :   0.3333 B(  0-Ag,  2-Ag) :   0.3333 B(  0-Ag,  3-Ag) :   0.3427
B(  1-Ag,  2-Ag) :   0.3332 B(  1-Ag,  3-Ag) :   0.3425 B(  2-Ag,  3-Ag) :   0.3425
B(  4-N ,  5-H ) :   1.0209 B(  4-N ,  6-H ) :   1.0207 B(  4-N ,  7-H ) :   1.0209

FINAL SINGLE POINT ENERGY      -643.749082079253

DIPOLE MOMENT
-------------
                                X             Y             Z
Electronic contribution:      0.00000      -0.00003      41.82231
Nuclear contribution   :      0.00000       0.00000     -43.35494
                        -----------------------------------------
Total Dipole Moment    :      0.00000      -0.00003      -1.53263
                        -----------------------------------------
Magnitude (a.u.)       :      1.53263
Magnitude (Debye)      :      3.89563

Rotational constants in cm-1:     0.020453     0.016499     0.016499
Rotational constants in MHz :   613.168216   494.640125   494.640113

                             ****ORCA TERMINATED NORMALLY****
TOTAL RUN TIME: 0 days 0 hours 0 minutes 32 seconds 124 msec
