                         Program Version 4.2.0 -  RELEASE  -
|  1> #
|  2> # Ag04C2_NH3_A wB97M-V/Def2-TZVPPD
|  3> #
|  4> ! wb97m-v def2-tzvppd def2/jk grid4 nofinalgrid
|  5>
|  6> *xyz 2 1
|  7> Ag      -0.268639    1.507918    0.000000
|  8> Ag       1.705052   -0.492854   -0.000000
|  9> Ag      -0.647170   -0.911099    1.379441
| 10> Ag      -0.647170   -0.911099   -1.379441
| 11> N       -0.647170    3.675657    0.000000
| 12> H       -0.250844    4.149729    0.817426
| 13> H       -0.250844    4.149729   -0.817426
| 14> H       -1.645581    3.906275    0.000000
| 15> *
| 16>
| 17> %maxcore 5000
| 18>
| 19> %pal
| 20> nprocs = 24
| 21> end
| 22>
| 23>
| 24>                          ****END OF INPUT****

CARTESIAN COORDINATES (ANGSTROEM)
---------------------------------
  Ag    -0.268639    1.507918    0.000000
  Ag     1.705052   -0.492854   -0.000000
  Ag    -0.647170   -0.911099    1.379441
  Ag    -0.647170   -0.911099   -1.379441
  N     -0.647170    3.675657    0.000000
  H     -0.250844    4.149729    0.817426
  H     -0.250844    4.149729   -0.817426
  H     -1.645581    3.906275    0.000000

 Total Charge           Charge          ....    2
 Multiplicity           Mult            ....    1
 Number of Electrons    NEL             ....   84
 Basis Dimension        Dim             ....  312

ORBITAL ENERGIES
----------------

  NO   OCC          E(Eh)            E(eV)
   0   2.0000     -14.820726      -403.2925
   1   2.0000      -4.212921      -114.6394
   2   2.0000      -4.212669      -114.6326
   3   2.0000      -4.212665      -114.6324
   4   2.0000      -4.197052      -114.2076
   5   2.0000      -2.802556       -76.2614
   6   2.0000      -2.800625       -76.2089
   7   2.0000      -2.800620       -76.2088
   8   2.0000      -2.799271       -76.1720
   9   2.0000      -2.799115       -76.1678
  10   2.0000      -2.799114       -76.1678
  11   2.0000      -2.798523       -76.1517
  12   2.0000      -2.798359       -76.1472
  13   2.0000      -2.798355       -76.1471
  14   2.0000      -2.783403       -75.7403
  15   2.0000      -2.782745       -75.7223
  16   2.0000      -2.782744       -75.7223
  17   2.0000      -1.298821       -35.3427
  18   2.0000      -0.885753       -24.1026
  19   2.0000      -0.885749       -24.1025
  20   2.0000      -0.839292       -22.8383
  21   2.0000      -0.815960       -22.2034
  22   2.0000      -0.809066       -22.0158
  23   2.0000      -0.809048       -22.0153
  24   2.0000      -0.799210       -21.7476
  25   2.0000      -0.799208       -21.7476
  26   2.0000      -0.791797       -21.5459
  27   2.0000      -0.789815       -21.4920
  28   2.0000      -0.784462       -21.3463
  29   2.0000      -0.784461       -21.3463
  30   2.0000      -0.768587       -20.9143
  31   2.0000      -0.767078       -20.8733
  32   2.0000      -0.767059       -20.8727
  33   2.0000      -0.765062       -20.8184
  34   2.0000      -0.765053       -20.8182
  35   2.0000      -0.755622       -20.5615
  36   2.0000      -0.755614       -20.5613
  37   2.0000      -0.744582       -20.2611
  38   2.0000      -0.736673       -20.0459
  39   2.0000      -0.736668       -20.0457
  40   2.0000      -0.697927       -18.9916
  41   2.0000      -0.669465       -18.2171
  42   0.0000      -0.340914        -9.2767
  43   0.0000      -0.340906        -9.2765
  44   0.0000      -0.315599        -8.5879
  45   0.0000      -0.243717        -6.6319
  46   0.0000      -0.228496        -6.2177

MULLIKEN ATOMIC CHARGES
-----------------------
   0 Ag:    0.395202
   1 Ag:    0.402338
   2 Ag:    0.401421
   3 Ag:    0.401413
   4 N :   -0.227558
   5 H :    0.209041
   6 H :    0.209043
   7 H :    0.209099
Sum of atomic charges:    2.0000000

LOEWDIN ATOMIC CHARGES
----------------------
   0 Ag:    0.411949
   1 Ag:    0.475465
   2 Ag:    0.475447
   3 Ag:    0.475446
   4 N :    0.410984
   5 H :   -0.083107
   6 H :   -0.083107
   7 H :   -0.083076

  Mayer bond orders larger than 0.100000
B(  0-Ag,  1-Ag) :   0.2421 B(  0-Ag,  2-Ag) :   0.2424 B(  0-Ag,  3-Ag) :   0.2424
B(  0-Ag,  4-N ) :   0.4472 B(  1-Ag,  2-Ag) :   0.4289 B(  1-Ag,  3-Ag) :   0.4289
B(  2-Ag,  3-Ag) :   0.4294 B(  4-N ,  5-H ) :   0.9980 B(  4-N ,  6-H ) :   0.9980
B(  4-N ,  7-H ) :   0.9979

FINAL SINGLE POINT ENERGY      -643.787745797555

DIPOLE MOMENT
-------------
                                X             Y             Z
Electronic contribution:      8.70173     -49.42835       0.00000
Nuclear contribution   :     -9.00166      51.14183       0.00000
                        -----------------------------------------
Total Dipole Moment    :     -0.29993       1.71348       0.00000
                        -----------------------------------------
Magnitude (a.u.)       :      1.73953
Magnitude (Debye)      :      4.42154

Rotational constants in cm-1:     0.020466     0.015199     0.015198
Rotational constants in MHz :   613.555994   455.656791   455.636329

                             ****ORCA TERMINATED NORMALLY****
TOTAL RUN TIME: 0 days 0 hours 0 minutes 28 seconds 755 msec
