                         Program Version 4.2.0 -  RELEASE  -
|  1> #
|  2> # Ag04C2_H_F wB97M-V/Def2-TZVPPD
|  3> #
|  4> ! wb97m-v def2-tzvppd def2/jk grid4 nofinalgrid
|  5>
|  6> *xyz 2 2
|  7> Ag       0.000000    1.604405   -0.611776
|  8> Ag       1.389456   -0.802203   -0.611776
|  9> Ag      -1.389456   -0.802203   -0.611776
| 10> Ag       0.000000    0.000000    1.871824
| 11> H        0.000000    0.000000   -1.715373
| 12> *
| 13>
| 14> %maxcore 5000
| 15>
| 16> %pal
| 17> nprocs = 24
| 18> end
| 19>
| 20>
| 21>                          ****END OF INPUT****

CARTESIAN COORDINATES (ANGSTROEM)
---------------------------------
  Ag     0.000000    1.604405   -0.611776
  Ag     1.389456   -0.802203   -0.611776
  Ag    -1.389456   -0.802203   -0.611776
  Ag     0.000000    0.000000    1.871824
  H      0.000000    0.000000   -1.715373

 Total Charge           Charge          ....    2
 Multiplicity           Mult            ....    2
 Number of Electrons    NEL             ....   75
 Basis Dimension        Dim             ....  241

ORBITAL ENERGIES
----------------
                 SPIN UP ORBITALS
  NO   OCC          E(Eh)            E(eV)
   0   1.0000      -4.256431      -115.8234
   1   1.0000      -4.256198      -115.8170
   2   1.0000      -4.256196      -115.8170
   3   1.0000      -4.228106      -115.0526
   4   1.0000      -2.847038       -77.4718
   5   1.0000      -2.844647       -77.4068
   6   1.0000      -2.844645       -77.4067
   7   1.0000      -2.842480       -77.3478
   8   1.0000      -2.842476       -77.3477
   9   1.0000      -2.842475       -77.3477
  10   1.0000      -2.841894       -77.3319
  11   1.0000      -2.841891       -77.3318
  12   1.0000      -2.841560       -77.3228
  13   1.0000      -2.815650       -76.6177
  14   1.0000      -2.814376       -76.5831
  15   1.0000      -2.814374       -76.5830
  16   1.0000      -0.920520       -25.0486
  17   1.0000      -0.867311       -23.6007
  18   1.0000      -0.850253       -23.1366
  19   1.0000      -0.850243       -23.1363
  20   1.0000      -0.836875       -22.7725
  21   1.0000      -0.836870       -22.7724
  22   1.0000      -0.835505       -22.7352
  23   1.0000      -0.821892       -22.3648
  24   1.0000      -0.821885       -22.3646
  25   1.0000      -0.813467       -22.1356
  26   1.0000      -0.813456       -22.1353
  27   1.0000      -0.810314       -22.0498
  28   1.0000      -0.807733       -21.9795
  29   1.0000      -0.807733       -21.9795
  30   1.0000      -0.798137       -21.7184
  31   1.0000      -0.792372       -21.5615
  32   1.0000      -0.792358       -21.5612
  33   1.0000      -0.787955       -21.4414
  34   1.0000      -0.781874       -21.2759
  35   1.0000      -0.781866       -21.2757
  36   1.0000      -0.764504       -20.8032
  37   1.0000      -0.613373       -16.6907
  38   0.0000      -0.370180       -10.0731
  39   0.0000      -0.370177       -10.0730
  40   0.0000      -0.307203        -8.3594
  41   0.0000      -0.272010        -7.4018
  42   0.0000      -0.252569        -6.8727

                 SPIN DOWN ORBITALS
  NO   OCC          E(Eh)            E(eV)
   0   1.0000      -4.254501      -115.7709
   1   1.0000      -4.254274      -115.7647
   2   1.0000      -4.254272      -115.7646
   3   1.0000      -4.227087      -115.0249
   4   1.0000      -2.844273       -77.3966
   5   1.0000      -2.842715       -77.3542
   6   1.0000      -2.842714       -77.3542
   7   1.0000      -2.840834       -77.3030
   8   1.0000      -2.840780       -77.3016
   9   1.0000      -2.840777       -77.3015
  10   1.0000      -2.839434       -77.2649
  11   1.0000      -2.839230       -77.2594
  12   1.0000      -2.839229       -77.2594
  13   1.0000      -2.814791       -76.5944
  14   1.0000      -2.813362       -76.5555
  15   1.0000      -2.813361       -76.5554
  16   1.0000      -0.905095       -24.6289
  17   1.0000      -0.863278       -23.4910
  18   1.0000      -0.849299       -23.1106
  19   1.0000      -0.849289       -23.1103
  20   1.0000      -0.833631       -22.6843
  21   1.0000      -0.833628       -22.6842
  22   1.0000      -0.832320       -22.6486
  23   1.0000      -0.820001       -22.3134
  24   1.0000      -0.819994       -22.3132
  25   1.0000      -0.809233       -22.0203
  26   1.0000      -0.808789       -22.0083
  27   1.0000      -0.808781       -22.0080
  28   1.0000      -0.803625       -21.8678
  29   1.0000      -0.803609       -21.8673
  30   1.0000      -0.793415       -21.5899
  31   1.0000      -0.789577       -21.4855
  32   1.0000      -0.789564       -21.4851
  33   1.0000      -0.787030       -21.4162
  34   1.0000      -0.778414       -21.1817
  35   1.0000      -0.778403       -21.1814
  36   1.0000      -0.746261       -20.3068
  37   0.0000      -0.417469       -11.3599
  38   0.0000      -0.373979       -10.1765
  39   0.0000      -0.373977       -10.1764
  40   0.0000      -0.303364        -8.2550
  41   0.0000      -0.280054        -7.6206

MULLIKEN ATOMIC CHARGES AND SPIN POPULATIONS
--------------------------------------------
   0 Ag:    0.509941    0.097673
   1 Ag:    0.509989    0.097647
   2 Ag:    0.509993    0.097650
   3 Ag:    0.392011    0.438570
   4 H :    0.078066    0.268459
Sum of atomic charges         :    2.0000000

LOEWDIN ATOMIC CHARGES AND SPIN POPULATIONS
-------------------------------------------
   0 Ag:    0.542007    0.178948
   1 Ag:    0.542032    0.178916
   2 Ag:    0.542032    0.178917
   3 Ag:    0.506085    0.292267
   4 H :   -0.132156    0.170952

  Mayer bond orders larger than 0.100000
B(  0-Ag,  1-Ag) :   0.3040 B(  0-Ag,  2-Ag) :   0.3040 B(  0-Ag,  3-Ag) :   0.2776
B(  0-Ag,  4-H ) :   0.2612 B(  1-Ag,  2-Ag) :   0.3039 B(  1-Ag,  3-Ag) :   0.2775
B(  1-Ag,  4-H ) :   0.2612 B(  2-Ag,  3-Ag) :   0.2775 B(  2-Ag,  4-H ) :   0.2612

FINAL SINGLE POINT ENERGY      -587.687998078956

DIPOLE MOMENT
-------------
                                X             Y             Z
Electronic contribution:     -0.00000      -0.00014       2.67137
Nuclear contribution   :      0.00000       0.00000      -2.67399
                        -----------------------------------------
Total Dipole Moment    :     -0.00000      -0.00014      -0.00262
                        -----------------------------------------
Magnitude (a.u.)       :      0.00262
Magnitude (Debye)      :      0.00666

Rotational constants in cm-1:     0.020237     0.018353     0.018353
Rotational constants in MHz :   606.690796   550.208253   550.208173

                             ****ORCA TERMINATED NORMALLY****
TOTAL RUN TIME: 0 days 0 hours 0 minutes 21 seconds 625 msec
