                         Program Version 4.2.0 -  RELEASE  -
|  1> #
|  2> # Ag04C2_H_E wB97M-V/Def2-TZVPPD
|  3> #
|  4> ! wb97m-v def2-tzvppd def2/jk grid4 nofinalgrid
|  5>
|  6> *xyz 2 2
|  7> Ag      -0.000000    1.374598    1.108828
|  8> Ag      -0.000000   -1.374598    1.108828
|  9> Ag      -1.374988    0.000000   -1.132689
| 10> Ag       1.374988   -0.000000   -1.132689
| 11> H        0.000000    0.000000    2.242952
| 12> *
| 13>
| 14> %maxcore 5000
| 15>
| 16> %pal
| 17> nprocs = 24
| 18> end
| 19>
| 20>
| 21>                          ****END OF INPUT****

CARTESIAN COORDINATES (ANGSTROEM)
---------------------------------
  Ag    -0.000000    1.374598    1.108828
  Ag    -0.000000   -1.374598    1.108828
  Ag    -1.374988    0.000000   -1.132689
  Ag     1.374988   -0.000000   -1.132689
  H      0.000000    0.000000    2.242952

 Total Charge           Charge          ....    2
 Multiplicity           Mult            ....    2
 Number of Electrons    NEL             ....   75
 Basis Dimension        Dim             ....  241

ORBITAL ENERGIES
----------------
                 SPIN UP ORBITALS
  NO   OCC          E(Eh)            E(eV)
   0   1.0000      -4.254886      -115.7813
   1   1.0000      -4.254702      -115.7763
   2   1.0000      -4.242570      -115.4462
   3   1.0000      -4.242393      -115.4414
   4   1.0000      -2.846029       -77.4444
   5   1.0000      -2.844008       -77.3894
   6   1.0000      -2.841504       -77.3213
   7   1.0000      -2.840351       -77.2899
   8   1.0000      -2.838117       -77.2291
   9   1.0000      -2.837885       -77.2228
  10   1.0000      -2.831813       -77.0575
  11   1.0000      -2.829286       -76.9888
  12   1.0000      -2.829224       -76.9871
  13   1.0000      -2.828957       -76.9798
  14   1.0000      -2.828789       -76.9753
  15   1.0000      -2.828671       -76.9721
  16   1.0000      -0.902888       -24.5688
  17   1.0000      -0.861660       -23.4470
  18   1.0000      -0.843563       -22.9545
  19   1.0000      -0.842289       -22.9198
  20   1.0000      -0.840120       -22.8608
  21   1.0000      -0.834922       -22.7194
  22   1.0000      -0.829965       -22.5845
  23   1.0000      -0.826707       -22.4959
  24   1.0000      -0.821181       -22.3455
  25   1.0000      -0.811292       -22.0764
  26   1.0000      -0.810374       -22.0514
  27   1.0000      -0.806527       -21.9467
  28   1.0000      -0.805737       -21.9252
  29   1.0000      -0.804767       -21.8988
  30   1.0000      -0.803580       -21.8665
  31   1.0000      -0.797298       -21.6956
  32   1.0000      -0.795546       -21.6479
  33   1.0000      -0.789744       -21.4900
  34   1.0000      -0.787367       -21.4254
  35   1.0000      -0.781067       -21.2539
  36   1.0000      -0.751685       -20.4544
  37   1.0000      -0.636332       -17.3155
  38   0.0000      -0.366868        -9.9830
  39   0.0000      -0.366250        -9.9662
  40   0.0000      -0.314812        -8.5665
  41   0.0000      -0.269000        -7.3199
  42   0.0000      -0.260723        -7.0946

                 SPIN DOWN ORBITALS
  NO   OCC          E(Eh)            E(eV)
   0   1.0000      -4.251543      -115.6904
   1   1.0000      -4.251368      -115.6856
   2   1.0000      -4.241790      -115.4250
   3   1.0000      -4.241611      -115.4201
   4   1.0000      -2.840247       -77.2871
   5   1.0000      -2.838001       -77.2259
   6   1.0000      -2.837429       -77.2104
   7   1.0000      -2.836767       -77.1924
   8   1.0000      -2.836718       -77.1910
   9   1.0000      -2.836496       -77.1850
  10   1.0000      -2.830599       -77.0245
  11   1.0000      -2.828774       -76.9749
  12   1.0000      -2.828542       -76.9686
  13   1.0000      -2.828320       -76.9625
  14   1.0000      -2.828256       -76.9608
  15   1.0000      -2.827543       -76.9414
  16   1.0000      -0.882556       -24.0156
  17   1.0000      -0.858213       -23.3532
  18   1.0000      -0.840213       -22.8634
  19   1.0000      -0.840123       -22.8609
  20   1.0000      -0.836889       -22.7729
  21   1.0000      -0.831466       -22.6254
  22   1.0000      -0.827985       -22.5306
  23   1.0000      -0.823890       -22.4192
  24   1.0000      -0.816689       -22.2232
  25   1.0000      -0.807156       -21.9638
  26   1.0000      -0.806842       -21.9553
  27   1.0000      -0.804167       -21.8825
  28   1.0000      -0.803717       -21.8703
  29   1.0000      -0.801666       -21.8144
  30   1.0000      -0.798199       -21.7201
  31   1.0000      -0.795895       -21.6574
  32   1.0000      -0.794095       -21.6084
  33   1.0000      -0.786108       -21.3911
  34   1.0000      -0.780687       -21.2436
  35   1.0000      -0.778578       -21.1862
  36   1.0000      -0.725392       -19.7389
  37   0.0000      -0.435729       -11.8568
  38   0.0000      -0.371227       -10.1016
  39   0.0000      -0.362575        -9.8662
  40   0.0000      -0.309464        -8.4209
  41   0.0000      -0.277350        -7.5471

MULLIKEN ATOMIC CHARGES AND SPIN POPULATIONS
--------------------------------------------
   0 Ag:    0.441702    0.110118
   1 Ag:    0.441700    0.110119
   2 Ag:    0.502221    0.243921
   3 Ag:    0.502225    0.243921
   4 H :    0.112152    0.291921
Sum of atomic charges         :    2.0000000

LOEWDIN ATOMIC CHARGES AND SPIN POPULATIONS
-------------------------------------------
   0 Ag:    0.534444    0.212786
   1 Ag:    0.534444    0.212786
   2 Ag:    0.525086    0.186397
   3 Ag:    0.525086    0.186397
   4 H :   -0.119059    0.201633

  Mayer bond orders larger than 0.100000
B(  0-Ag,  1-Ag) :   0.4115 B(  0-Ag,  2-Ag) :   0.2435 B(  0-Ag,  3-Ag) :   0.2435
B(  0-Ag,  4-H ) :   0.4223 B(  1-Ag,  2-Ag) :   0.2435 B(  1-Ag,  3-Ag) :   0.2435
B(  1-Ag,  4-H ) :   0.4223 B(  2-Ag,  3-Ag) :   0.4014

FINAL SINGLE POINT ENERGY      -587.687028019122

DIPOLE MOMENT
-------------
                                X             Y             Z
Electronic contribution:     -0.00000       0.00000      -3.84923
Nuclear contribution   :      0.00000       0.00000       3.49639
                        -----------------------------------------
Total Dipole Moment    :     -0.00000       0.00000      -0.35283
                        -----------------------------------------
Magnitude (a.u.)       :      0.35283
Magnitude (Debye)      :      0.89683

Rotational constants in cm-1:     0.020671     0.017657     0.017653
Rotational constants in MHz :   619.701148   529.337252   529.209018

                             ****ORCA TERMINATED NORMALLY****
TOTAL RUN TIME: 0 days 0 hours 0 minutes 22 seconds 556 msec
