                         Program Version 4.2.0 -  RELEASE  -
|  1> #
|  2> # Ag04C2 wB97M-V/Def2-TZVPPD
|  3> #
|  4> ! wb97m-v def2-tzvppd def2/jk grid4 nofinalgrid
|  5>
|  6> *xyz 2 1
|  7> Ag      -0.000000   -0.000016    1.715553
|  8> Ag       0.000000   -1.617524   -0.571836
|  9> Ag       1.400774    0.808769   -0.571859
| 10> Ag      -1.400774    0.808770   -0.571858
| 11> *
| 12>
| 13> %maxcore 5000
| 14>
| 15> %pal
| 16> nprocs = 24
| 17> end
| 18>
| 19>
| 20>                          ****END OF INPUT****

CARTESIAN COORDINATES (ANGSTROEM)
---------------------------------
  Ag    -0.000000   -0.000016    1.715553
  Ag     0.000000   -1.617524   -0.571836
  Ag     1.400774    0.808769   -0.571859
  Ag    -1.400774    0.808770   -0.571858

 Total Charge           Charge          ....    2
 Multiplicity           Mult            ....    1
 Number of Electrons    NEL             ....   74
 Basis Dimension        Dim             ....  224

ORBITAL ENERGIES
----------------

  NO   OCC          E(Eh)            E(eV)
   0   2.0000      -4.240665      -115.3944
   1   2.0000      -4.240400      -115.3872
   2   2.0000      -4.240399      -115.3871
   3   2.0000      -4.240398      -115.3871
   4   2.0000      -2.830532       -77.0227
   5   2.0000      -2.828436       -76.9657
   6   2.0000      -2.828436       -76.9656
   7   2.0000      -2.828435       -76.9656
   8   2.0000      -2.827554       -76.9416
   9   2.0000      -2.827552       -76.9416
  10   2.0000      -2.826279       -76.9069
  11   2.0000      -2.826278       -76.9069
  12   2.0000      -2.826277       -76.9069
  13   2.0000      -2.826231       -76.9056
  14   2.0000      -2.826229       -76.9056
  15   2.0000      -2.826229       -76.9056
  16   2.0000      -0.861458       -23.4415
  17   2.0000      -0.839249       -22.8371
  18   2.0000      -0.839238       -22.8368
  19   2.0000      -0.839227       -22.8365
  20   2.0000      -0.832037       -22.6409
  21   2.0000      -0.832028       -22.6406
  22   2.0000      -0.817674       -22.2500
  23   2.0000      -0.817672       -22.2500
  24   2.0000      -0.817658       -22.2496
  25   2.0000      -0.797211       -21.6932
  26   2.0000      -0.797198       -21.6928
  27   2.0000      -0.797195       -21.6928
  28   2.0000      -0.794886       -21.6300
  29   2.0000      -0.794875       -21.6297
  30   2.0000      -0.793705       -21.5978
  31   2.0000      -0.793691       -21.5974
  32   2.0000      -0.793674       -21.5970
  33   2.0000      -0.774108       -21.0645
  34   2.0000      -0.774106       -21.0645
  35   2.0000      -0.774095       -21.0642
  36   2.0000      -0.699656       -19.0386
  37   0.0000      -0.365239        -9.9387
  38   0.0000      -0.365234        -9.9385
  39   0.0000      -0.365232        -9.9385
  40   0.0000      -0.267216        -7.2713
  41   0.0000      -0.249969        -6.8020

MULLIKEN ATOMIC CHARGES
-----------------------
   0 Ag:    0.500066
   1 Ag:    0.499877
   2 Ag:    0.500026
   3 Ag:    0.500031
Sum of atomic charges:    2.0000000

LOEWDIN ATOMIC CHARGES
----------------------
   0 Ag:    0.499997
   1 Ag:    0.499999
   2 Ag:    0.500002
   3 Ag:    0.500002

  Mayer bond orders larger than 0.100000
B(  0-Ag,  1-Ag) :   0.3353 B(  0-Ag,  2-Ag) :   0.3352 B(  0-Ag,  3-Ag) :   0.3352
B(  1-Ag,  2-Ag) :   0.3353 B(  1-Ag,  3-Ag) :   0.3353 B(  2-Ag,  3-Ag) :   0.3352

FINAL SINGLE POINT ENERGY      -587.157837528103

DIPOLE MOMENT
-------------
                                X             Y             Z
Electronic contribution:      0.00000      -0.00001      -0.00002
Nuclear contribution   :      0.00000      -0.00000       0.00000
                        -----------------------------------------
Total Dipole Moment    :      0.00000      -0.00001      -0.00002
                        -----------------------------------------
Magnitude (a.u.)       :      0.00002
Magnitude (Debye)      :      0.00005

Rotational constants in cm-1:     0.019912     0.019911     0.019911
Rotational constants in MHz :   596.940436   596.919431   596.905399

                             ****ORCA TERMINATED NORMALLY****
TOTAL RUN TIME: 0 days 0 hours 0 minutes 15 seconds 709 msec
