                         Program Version 4.2.0 -  RELEASE  -
|  1> #
|  2> # Ag04C2_H_A wB97M-V/Def2-TZVPPD
|  3> #
|  4> ! wb97m-v def2-tzvppd def2/jk grid4 nofinalgrid
|  5>
|  6> *xyz 2 2
|  7> Ag       0.000000    0.000000    1.733523
|  8> Ag       0.000000    1.616553   -0.602470
|  9> Ag      -1.399976   -0.808277   -0.602470
| 10> Ag       1.399976   -0.808277   -0.602470
| 11> H        0.000000    0.000000    3.472645
| 12> *
| 13>
| 14> %maxcore 5000
| 15>
| 16> %pal
| 17> nprocs = 24
| 18> end
| 19>
| 20>
| 21>                          ****END OF INPUT****

CARTESIAN COORDINATES (ANGSTROEM)
---------------------------------
  Ag     0.000000    0.000000    1.733523
  Ag     0.000000    1.616553   -0.602470
  Ag    -1.399976   -0.808277   -0.602470
  Ag     1.399976   -0.808277   -0.602470
  H      0.000000    0.000000    3.472645

 Total Charge           Charge          ....    2
 Multiplicity           Mult            ....    2
 Number of Electrons    NEL             ....   75
 Basis Dimension        Dim             ....  241

ORBITAL ENERGIES
----------------
                 SPIN UP ORBITALS
  NO   OCC          E(Eh)            E(eV)
   0   1.0000      -4.261695      -115.9666
   1   1.0000      -4.240739      -115.3964
   2   1.0000      -4.240539      -115.3909
   3   1.0000      -4.240538      -115.3909
   4   1.0000      -2.854369       -77.6713
   5   1.0000      -2.844028       -77.3899
   6   1.0000      -2.844026       -77.3899
   7   1.0000      -2.830039       -77.0093
   8   1.0000      -2.828321       -76.9625
   9   1.0000      -2.828319       -76.9625
  10   1.0000      -2.827222       -76.9326
  11   1.0000      -2.827183       -76.9316
  12   1.0000      -2.827178       -76.9314
  13   1.0000      -2.826343       -76.9087
  14   1.0000      -2.826342       -76.9087
  15   1.0000      -2.826330       -76.9083
  16   1.0000      -0.891420       -24.2568
  17   1.0000      -0.846514       -23.0348
  18   1.0000      -0.846493       -23.0343
  19   1.0000      -0.844326       -22.9753
  20   1.0000      -0.835129       -22.7250
  21   1.0000      -0.835121       -22.7248
  22   1.0000      -0.828161       -22.5354
  23   1.0000      -0.822944       -22.3935
  24   1.0000      -0.822939       -22.3933
  25   1.0000      -0.817914       -22.2566
  26   1.0000      -0.804866       -21.9015
  27   1.0000      -0.804862       -21.9014
  28   1.0000      -0.797233       -21.6938
  29   1.0000      -0.796048       -21.6616
  30   1.0000      -0.796037       -21.6613
  31   1.0000      -0.793901       -21.6031
  32   1.0000      -0.793882       -21.6026
  33   1.0000      -0.781515       -21.2661
  34   1.0000      -0.781513       -21.2660
  35   1.0000      -0.773945       -21.0601
  36   1.0000      -0.731918       -19.9165
  37   1.0000      -0.693062       -18.8592
  38   0.0000      -0.365815        -9.9543
  39   0.0000      -0.365813        -9.9543
  40   0.0000      -0.336668        -9.1612
  41   0.0000      -0.261658        -7.1201
  42   0.0000      -0.251264        -6.8372

                 SPIN DOWN ORBITALS
  NO   OCC          E(Eh)            E(eV)
   0   1.0000      -4.257015      -115.8393
   1   1.0000      -4.240607      -115.3928
   2   1.0000      -4.240407      -115.3874
   3   1.0000      -4.240406      -115.3873
   4   1.0000      -2.844464       -77.4018
   5   1.0000      -2.841347       -77.3170
   6   1.0000      -2.841346       -77.3170
   7   1.0000      -2.829757       -77.0016
   8   1.0000      -2.828173       -76.9585
   9   1.0000      -2.828172       -76.9585
  10   1.0000      -2.827094       -76.9291
  11   1.0000      -2.827089       -76.9290
  12   1.0000      -2.827053       -76.9280
  13   1.0000      -2.826304       -76.9076
  14   1.0000      -2.826158       -76.9037
  15   1.0000      -2.826158       -76.9037
  16   1.0000      -0.868257       -23.6265
  17   1.0000      -0.844221       -22.9724
  18   1.0000      -0.844202       -22.9719
  19   1.0000      -0.840850       -22.8807
  20   1.0000      -0.833881       -22.6911
  21   1.0000      -0.833873       -22.6908
  22   1.0000      -0.820732       -22.3332
  23   1.0000      -0.820725       -22.3331
  24   1.0000      -0.817403       -22.2427
  25   1.0000      -0.812631       -22.1128
  26   1.0000      -0.802943       -21.8492
  27   1.0000      -0.802939       -21.8491
  28   1.0000      -0.797020       -21.6880
  29   1.0000      -0.795772       -21.6540
  30   1.0000      -0.795759       -21.6537
  31   1.0000      -0.793454       -21.5910
  32   1.0000      -0.793434       -21.5904
  33   1.0000      -0.780032       -21.2257
  34   1.0000      -0.780028       -21.2256
  35   1.0000      -0.773964       -21.0606
  36   1.0000      -0.697912       -18.9911
  37   0.0000      -0.441466       -12.0129
  38   0.0000      -0.366281        -9.9670
  39   0.0000      -0.366279        -9.9669
  40   0.0000      -0.327305        -8.9064
  41   0.0000      -0.260241        -7.0815

MULLIKEN ATOMIC CHARGES AND SPIN POPULATIONS
--------------------------------------------
   0 Ag:    0.340850    0.326373
   1 Ag:    0.484431    0.023366
   2 Ag:    0.484552    0.023384
   3 Ag:    0.484554    0.023382
   4 H :    0.205614    0.603495
Sum of atomic charges         :    2.0000000

LOEWDIN ATOMIC CHARGES AND SPIN POPULATIONS
-------------------------------------------
   0 Ag:    0.417625    0.374100
   1 Ag:    0.499297    0.019671
   2 Ag:    0.499304    0.019674
   3 Ag:    0.499304    0.019673
   4 H :    0.084471    0.566882

  Mayer bond orders larger than 0.100000
B(  0-Ag,  1-Ag) :   0.3063 B(  0-Ag,  2-Ag) :   0.3063 B(  0-Ag,  3-Ag) :   0.3063
B(  0-Ag,  4-H ) :   0.5866 B(  1-Ag,  2-Ag) :   0.3552 B(  1-Ag,  3-Ag) :   0.3552
B(  2-Ag,  3-Ag) :   0.3551

FINAL SINGLE POINT ENERGY      -587.666914305688

DIPOLE MOMENT
-------------
                                X             Y             Z
Electronic contribution:      0.00000      -0.00003      -5.36214
Nuclear contribution   :      0.00000       0.00000       5.41329
                        -----------------------------------------
Total Dipole Moment    :      0.00000      -0.00003       0.05115
                        -----------------------------------------
Magnitude (a.u.)       :      0.05115
Magnitude (Debye)      :      0.13001

Rotational constants in cm-1:     0.019934     0.019231     0.019231
Rotational constants in MHz :   597.606998   576.544336   576.544235

                             ****ORCA TERMINATED NORMALLY****
TOTAL RUN TIME: 0 days 0 hours 0 minutes 22 seconds 802 msec
