                         Program Version 4.2.0 -  RELEASE  -
|  1> #
|  2> # Au01N0_F wB97M-V/Def2-TZVPPD
|  3> #
|  4> ! wb97m-v def2-tzvppd def2/jk grid4 nofinalgrid
|  5>
|  6> *xyz 0 1
|  7> Au       0.000000    0.000000    0.196853
|  8> F        0.000000    0.000000   -1.727931
|  9> *
| 10>
| 11> %maxcore 5000
| 12>
| 13> %pal
| 14> nprocs = 24
| 15> end
| 16>
| 17>
| 18>                          ****END OF INPUT****

CARTESIAN COORDINATES (ANGSTROEM)
---------------------------------
  Au     0.000000    0.000000    0.196853
  F      0.000000    0.000000   -1.727931

 Total Charge           Charge          ....    0
 Multiplicity           Mult            ....    1
 Number of Electrons    NEL             ....   28
 Basis Dimension        Dim             ....   99

ORBITAL ENERGIES
----------------

  NO   OCC          E(Eh)            E(eV)
   0   2.0000     -24.834631      -675.7847
   1   2.0000      -4.318292      -117.5067
   2   2.0000      -2.502241       -68.0894
   3   2.0000      -2.486160       -67.6519
   4   2.0000      -2.486160       -67.6519
   5   2.0000      -1.220897       -33.2223
   6   2.0000      -0.545089       -14.8326
   7   2.0000      -0.506689       -13.7877
   8   2.0000      -0.506689       -13.7877
   9   2.0000      -0.442409       -12.0386
  10   2.0000      -0.442408       -12.0385
  11   2.0000      -0.409835       -11.1522
  12   2.0000      -0.409835       -11.1522
  13   2.0000      -0.393360       -10.7039
  14   0.0000      -0.073829        -2.0090
  15   0.0000       0.036587         0.9956
  16   0.0000       0.036587         0.9956
  17   0.0000       0.064625         1.7585
  18   0.0000       0.122020         3.3203

MULLIKEN ATOMIC CHARGES
-----------------------
   0 Au:    0.499595
   1 F :   -0.499595
Sum of atomic charges:   -0.0000000

LOEWDIN ATOMIC CHARGES
----------------------
   0 Au:    0.627897
   1 F :   -0.627897

  Mayer bond orders larger than 0.100000
B(  0-Au,  1-F ) :   0.7865

FINAL SINGLE POINT ENERGY      -235.476009316994

DIPOLE MOMENT
-------------
                                X             Y             Z
Electronic contribution:     -0.00000      -0.00000      25.58675
Nuclear contribution   :      0.00000       0.00000     -23.77673
                        -----------------------------------------
Total Dipole Moment    :     -0.00000      -0.00000       1.81002
                        -----------------------------------------
Magnitude (a.u.)       :      1.81002
Magnitude (Debye)      :      4.60071

Rotational constants in cm-1:     0.000000     0.262612     0.262612
Rotational constants in MHz :     0.000000  7872.917876  7872.917876

                             ****ORCA TERMINATED NORMALLY****
TOTAL RUN TIME: 0 days 0 hours 0 minutes 5 seconds 879 msec
