                         Program Version 4.2.0 -  RELEASE  -
|  1> #
|  2> # Au01N0 wB97M-V/Def2-TZVPPD
|  3> #
|  4> ! wb97m-v def2-tzvppd def2/jk grid4 nofinalgrid
|  5>
|  6> *xyz 0 2
|  7> Au       0.000000    0.000000    0.000000
|  8> *
|  9>
| 10> %maxcore 5000
| 11>
| 12> %pal
| 13> nprocs = 24
| 14> end
| 15>
| 16>
| 17>                          ****END OF INPUT****

CARTESIAN COORDINATES (ANGSTROEM)
---------------------------------
  Au     0.000000    0.000000    0.000000

 Total Charge           Charge          ....    0
 Multiplicity           Mult            ....    2
 Number of Electrons    NEL             ....   19
 Basis Dimension        Dim             ....   59

ORBITAL ENERGIES
----------------
                 SPIN UP ORBITALS
  NO   OCC          E(Eh)            E(eV)
   0   1.0000      -4.269213      -116.1712
   1   1.0000      -2.442797       -66.4719
   2   1.0000      -2.442797       -66.4719
   3   1.0000      -2.442797       -66.4719
   4   1.0000      -0.410314       -11.1652
   5   1.0000      -0.410314       -11.1652
   6   1.0000      -0.410314       -11.1652
   7   1.0000      -0.410314       -11.1652
   8   1.0000      -0.410314       -11.1652
   9   1.0000      -0.314753        -8.5649
  10   0.0000       0.038091         1.0365
  11   0.0000       0.038091         1.0365
  12   0.0000       0.038091         1.0365
  13   0.0000       0.190518         5.1843
  14   0.0000       0.240211         6.5365

                 SPIN DOWN ORBITALS
  NO   OCC          E(Eh)            E(eV)
   0   1.0000      -4.265994      -116.0836
   1   1.0000      -2.439313       -66.3771
   2   1.0000      -2.439313       -66.3771
   3   1.0000      -2.439313       -66.3771
   4   1.0000      -0.400473       -10.8974
   5   1.0000      -0.400473       -10.8974
   6   1.0000      -0.400473       -10.8974
   7   1.0000      -0.400473       -10.8974
   8   1.0000      -0.400473       -10.8974
   9   0.0000      -0.098600        -2.6830
  10   0.0000      -0.027029        -0.7355
  11   0.0000      -0.027029        -0.7355
  12   0.0000      -0.027029        -0.7355
  13   0.0000       0.158062         4.3011

MULLIKEN ATOMIC CHARGES AND SPIN POPULATIONS
--------------------------------------------
   0 Au:    0.000000    1.000000
Sum of atomic charges         :    0.0000000

LOEWDIN ATOMIC CHARGES AND SPIN POPULATIONS
-------------------------------------------
   0 Au:    0.000000    1.000000

FINAL SINGLE POINT ENERGY      -135.615286824765

DIPOLE MOMENT
-------------
                                X             Y             Z
Electronic contribution:      0.00000      -0.00000      -0.00000
Nuclear contribution   :      0.00000       0.00000       0.00000
                        -----------------------------------------
Total Dipole Moment    :      0.00000      -0.00000      -0.00000
                        -----------------------------------------
Magnitude (a.u.)       :      0.00000
Magnitude (Debye)      :      0.00000

Rotational constants in cm-1:     0.000000     0.000000     0.000000
Rotational constants in MHz :     0.000000     0.000000     0.000000

                             ****ORCA TERMINATED NORMALLY****
TOTAL RUN TIME: 0 days 0 hours 0 minutes 4 seconds 369 msec
