                         Program Version 4.2.0 -  RELEASE  -
|  1> #
|  2> # Au01N0_H wB97M-V/Def2-TZVPPD
|  3> #
|  4> ! wb97m-v def2-tzvppd def2/jk grid4 nofinalgrid
|  5>
|  6> *xyz 0 1
|  7> Au       0.000000    0.000000    0.019034
|  8> H        0.000000    0.000000   -1.503691
|  9> *
| 10>
| 11> %maxcore 5000
| 12>
| 13> %pal
| 14> nprocs = 24
| 15> end
| 16>
| 17>
| 18>                          ****END OF INPUT****

CARTESIAN COORDINATES (ANGSTROEM)
---------------------------------
  Au     0.000000    0.000000    0.019034
  H      0.000000    0.000000   -1.503691

 Total Charge           Charge          ....    0
 Multiplicity           Mult            ....    1
 Number of Electrons    NEL             ....   20
 Basis Dimension        Dim             ....   76

ORBITAL ENERGIES
----------------

  NO   OCC          E(Eh)            E(eV)
   0   2.0000      -4.294711      -116.8650
   1   2.0000      -2.480096       -67.4868
   2   2.0000      -2.459792       -66.9343
   3   2.0000      -2.459792       -66.9343
   4   2.0000      -0.523229       -14.2378
   5   2.0000      -0.433571       -11.7981
   6   2.0000      -0.433571       -11.7981
   7   2.0000      -0.413714       -11.2577
   8   2.0000      -0.413713       -11.2577
   9   2.0000      -0.353137        -9.6093
  10   0.0000      -0.025102        -0.6831
  11   0.0000       0.037712         1.0262
  12   0.0000       0.037712         1.0262
  13   0.0000       0.105385         2.8677
  14   0.0000       0.137307         3.7363

MULLIKEN ATOMIC CHARGES
-----------------------
   0 Au:   -0.151582
   1 H :    0.151582
Sum of atomic charges:    0.0000000

LOEWDIN ATOMIC CHARGES
----------------------
   0 Au:    0.352684
   1 H :   -0.352684

  Mayer bond orders larger than 0.100000
B(  0-Au,  1-H ) :   1.0535

FINAL SINGLE POINT ENERGY      -136.223345025043

DIPOLE MOMENT
-------------
                                X             Y             Z
Electronic contribution:      0.00000      -0.00000       3.28494
Nuclear contribution   :      0.00000       0.00000      -2.58451
                        -----------------------------------------
Total Dipole Moment    :      0.00000      -0.00000       0.70043
                        -----------------------------------------
Magnitude (a.u.)       :      0.70043
Magnitude (Debye)      :      1.78036

Rotational constants in cm-1:     0.000000     7.249537     7.249537
Rotational constants in MHz :     0.000000 217335.666254 217335.666254

                             ****ORCA TERMINATED NORMALLY****
TOTAL RUN TIME: 0 days 0 hours 0 minutes 5 seconds 211 msec
