                         Program Version 4.2.0 -  RELEASE  -
|  1> #
|  2> # Au02N0 wB97M-V/Def2-TZVPPD
|  3> #
|  4> ! wb97m-v def2-tzvppd def2/jk grid4 nofinalgrid
|  5>
|  6> *xyz 0 1
|  7> Au       0.000000    0.000000    1.239541
|  8> Au       0.000000    0.000000   -1.239541
|  9> *
| 10>
| 11> %maxcore 5000
| 12>
| 13> %pal
| 14> nprocs = 24
| 15> end
| 16>
| 17>
| 18>                          ****END OF INPUT****

CARTESIAN COORDINATES (ANGSTROEM)
---------------------------------
  Au     0.000000    0.000000    1.239541
  Au     0.000000    0.000000   -1.239541

 Total Charge           Charge          ....    0
 Multiplicity           Mult            ....    1
 Number of Electrons    NEL             ....   38
 Basis Dimension        Dim             ....  118

ORBITAL ENERGIES
----------------

  NO   OCC          E(Eh)            E(eV)
   0   2.0000      -4.266872      -116.1075
   1   2.0000      -4.266210      -116.0895
   2   2.0000      -2.452459       -66.7348
   3   2.0000      -2.439744       -66.3888
   4   2.0000      -2.436730       -66.3068
   5   2.0000      -2.436730       -66.3068
   6   2.0000      -2.435717       -66.2792
   7   2.0000      -2.435717       -66.2792
   8   2.0000      -0.470966       -12.8156
   9   2.0000      -0.441704       -12.0194
  10   2.0000      -0.441704       -12.0194
  11   2.0000      -0.403155       -10.9704
  12   2.0000      -0.403145       -10.9701
  13   2.0000      -0.389140       -10.5890
  14   2.0000      -0.389130       -10.5888
  15   2.0000      -0.372062       -10.1243
  16   2.0000      -0.372062       -10.1243
  17   2.0000      -0.365358        -9.9419
  18   2.0000      -0.327328        -8.9070
  19   0.0000      -0.055641        -1.5141
  20   0.0000       0.026775         0.7286
  21   0.0000       0.026775         0.7286
  22   0.0000       0.043574         1.1857
  23   0.0000       0.086074         2.3422

MULLIKEN ATOMIC CHARGES
-----------------------
   0 Au:    0.000002
   1 Au:   -0.000002
Sum of atomic charges:   -0.0000000

LOEWDIN ATOMIC CHARGES
----------------------
   0 Au:    0.000000
   1 Au:   -0.000000

  Mayer bond orders larger than 0.100000
B(  0-Au,  1-Au) :   1.1073

FINAL SINGLE POINT ENERGY      -271.309031178562

DIPOLE MOMENT
-------------
                                X             Y             Z
Electronic contribution:     -0.00000      -0.00000      -0.00000
Nuclear contribution   :      0.00000       0.00000       0.00000
                        -----------------------------------------
Total Dipole Moment    :     -0.00000      -0.00000      -0.00000
                        -----------------------------------------
Magnitude (a.u.)       :      0.00000
Magnitude (Debye)      :      0.00000

Rotational constants in cm-1:     0.000000     0.027852     0.027852
Rotational constants in MHz :     0.000000   834.974952   834.974952

                             ****ORCA TERMINATED NORMALLY****
TOTAL RUN TIME: 0 days 0 hours 0 minutes 7 seconds 593 msec
