                         Program Version 4.2.0 -  RELEASE  -
|  1> #
|  2> # Au03C1_LIN wB97M-V/Def2-TZVPPD
|  3> #
|  4> ! wb97m-v def2-tzvppd def2/jk grid4 nofinalgrid
|  5>
|  6> *xyz 1 1
|  7> Au       0.000000    0.000000    0.000000
|  8> Au       0.000000    0.000000    2.576864
|  9> Au       0.000000    0.000000   -2.576864
| 10> *
| 11>
| 12> %maxcore 5000
| 13>
| 14> %pal
| 15> nprocs = 24
| 16> end
| 17>
| 18>
| 19>                          ****END OF INPUT****

CARTESIAN COORDINATES (ANGSTROEM)
---------------------------------
  Au     0.000000    0.000000    0.000000
  Au     0.000000    0.000000    2.576864
  Au     0.000000    0.000000   -2.576864

 Total Charge           Charge          ....    1
 Multiplicity           Mult            ....    1
 Number of Electrons    NEL             ....   56
 Basis Dimension        Dim             ....  177

ORBITAL ENERGIES
----------------

  NO   OCC          E(Eh)            E(eV)
   0   2.0000      -4.481542      -121.9490
   1   2.0000      -4.481541      -121.9489
   2   2.0000      -4.434481      -120.6684
   3   2.0000      -2.660746       -72.4026
   4   2.0000      -2.659908       -72.3798
   5   2.0000      -2.654807       -72.2410
   6   2.0000      -2.654807       -72.2410
   7   2.0000      -2.654754       -72.2395
   8   2.0000      -2.654754       -72.2395
   9   2.0000      -2.615876       -71.1816
  10   2.0000      -2.602305       -70.8123
  11   2.0000      -2.602305       -70.8123
  12   2.0000      -0.687330       -18.7032
  13   2.0000      -0.645070       -17.5532
  14   2.0000      -0.645070       -17.5532
  15   2.0000      -0.627741       -17.0817
  16   2.0000      -0.624336       -16.9891
  17   2.0000      -0.624336       -16.9891
  18   2.0000      -0.616733       -16.7822
  19   2.0000      -0.616723       -16.7819
  20   2.0000      -0.615789       -16.7565
  21   2.0000      -0.615779       -16.7562
  22   2.0000      -0.558733       -15.2039
  23   2.0000      -0.558720       -15.2035
  24   2.0000      -0.551731       -15.0134
  25   2.0000      -0.551731       -15.0134
  26   2.0000      -0.544085       -14.8053
  27   2.0000      -0.498338       -13.5605
  28   0.0000      -0.310142        -8.4394
  29   0.0000      -0.189921        -5.1680
  30   0.0000      -0.135072        -3.6755
  31   0.0000      -0.135072        -3.6755
  32   0.0000      -0.108006        -2.9390

MULLIKEN ATOMIC CHARGES
-----------------------
   0 Au:   -0.095822
   1 Au:    0.547907
   2 Au:    0.547915
Sum of atomic charges:    1.0000000

LOEWDIN ATOMIC CHARGES
----------------------
   0 Au:    0.110947
   1 Au:    0.444527
   2 Au:    0.444527

  Mayer bond orders larger than 0.100000
B(  0-Au,  1-Au) :   0.6083 B(  0-Au,  2-Au) :   0.6083 B(  1-Au,  2-Au) :   0.2675

FINAL SINGLE POINT ENERGY      -406.649142241341

DIPOLE MOMENT
-------------
                                X             Y             Z
Electronic contribution:     -0.00000       0.00000       0.00000
Nuclear contribution   :      0.00000       0.00000       0.00000
                        -----------------------------------------
Total Dipole Moment    :     -0.00000       0.00000       0.00000
                        -----------------------------------------
Magnitude (a.u.)       :      0.00000
Magnitude (Debye)      :      0.00000

Rotational constants in cm-1:     0.000000     0.006445     0.006445
Rotational constants in MHz :     0.000000   193.202279   193.202279

                             ****ORCA TERMINATED NORMALLY****
TOTAL RUN TIME: 0 days 0 hours 0 minutes 12 seconds 955 msec
