                         Program Version 4.2.0 -  RELEASE  -
|  1> #
|  2> # Au03C1_D3H wB97M-V/Def2-TZVPPD
|  3> #
|  4> ! wb97m-v def2-tzvppd def2/jk grid4 nofinalgrid
|  5>
|  6> *xyz 1 1
|  7> Au       0.000000    1.501400   -0.000000
|  8> Au       1.300251   -0.750700   -0.000000
|  9> Au      -1.300251   -0.750700   -0.000000
| 10> *
| 11>
| 12> %maxcore 5000
| 13>
| 14> %pal
| 15> nprocs = 24
| 16> end
| 17>
| 18>
| 19>                          ****END OF INPUT****

CARTESIAN COORDINATES (ANGSTROEM)
---------------------------------
  Au     0.000000    1.501400   -0.000000
  Au     1.300251   -0.750700   -0.000000
  Au    -1.300251   -0.750700   -0.000000

 Total Charge           Charge          ....    1
 Multiplicity           Mult            ....    1
 Number of Electrons    NEL             ....   56
 Basis Dimension        Dim             ....  177

ORBITAL ENERGIES
----------------

  NO   OCC          E(Eh)            E(eV)
   0   2.0000      -4.478675      -121.8709
   1   2.0000      -4.478195      -121.8579
   2   2.0000      -4.478193      -121.8578
   3   2.0000      -2.662915       -72.4616
   4   2.0000      -2.656228       -72.2797
   5   2.0000      -2.656224       -72.2795
   6   2.0000      -2.650417       -72.1215
   7   2.0000      -2.650404       -72.1211
   8   2.0000      -2.649203       -72.0885
   9   2.0000      -2.647657       -72.0464
  10   2.0000      -2.646804       -72.0232
  11   2.0000      -2.646803       -72.0232
  12   2.0000      -0.702689       -19.1211
  13   2.0000      -0.667977       -18.1766
  14   2.0000      -0.667974       -18.1765
  15   2.0000      -0.660594       -17.9757
  16   2.0000      -0.634671       -17.2703
  17   2.0000      -0.627759       -17.0822
  18   2.0000      -0.627758       -17.0822
  19   2.0000      -0.594289       -16.1714
  20   2.0000      -0.594288       -16.1714
  21   2.0000      -0.587271       -15.9805
  22   2.0000      -0.587265       -15.9803
  23   2.0000      -0.587075       -15.9751
  24   2.0000      -0.584551       -15.9064
  25   2.0000      -0.584546       -15.9063
  26   2.0000      -0.557468       -15.1695
  27   2.0000      -0.550848       -14.9893
  28   0.0000      -0.235775        -6.4158
  29   0.0000      -0.235775        -6.4158
  30   0.0000      -0.150861        -4.1051
  31   0.0000      -0.122879        -3.3437
  32   0.0000      -0.105364        -2.8671

MULLIKEN ATOMIC CHARGES
-----------------------
   0 Au:    0.333359
   1 Au:    0.333325
   2 Au:    0.333317
Sum of atomic charges:    1.0000000

LOEWDIN ATOMIC CHARGES
----------------------
   0 Au:    0.333331
   1 Au:    0.333335
   2 Au:    0.333335

  Mayer bond orders larger than 0.100000
B(  0-Au,  1-Au) :   0.6103 B(  0-Au,  2-Au) :   0.6103 B(  1-Au,  2-Au) :   0.6104

FINAL SINGLE POINT ENERGY      -406.727961232540

DIPOLE MOMENT
-------------
                                X             Y             Z
Electronic contribution:      0.00000      -0.00002       0.00000
Nuclear contribution   :      0.00000       0.00000      -0.00000
                        -----------------------------------------
Total Dipole Moment    :      0.00000      -0.00002       0.00000
                        -----------------------------------------
Magnitude (a.u.)       :      0.00002
Magnitude (Debye)      :      0.00006

Rotational constants in cm-1:     0.025312     0.025312     0.012656
Rotational constants in MHz :   758.824167   758.823632   379.411950

                             ****ORCA TERMINATED NORMALLY****
TOTAL RUN TIME: 0 days 0 hours 0 minutes 13 seconds 253 msec
