                         Program Version 4.2.0 -  RELEASE  -
|  1> #
|  2> # Au03N0_D3H wB97M-V/Def2-TZVPPD
|  3> #
|  4> ! wb97m-v def2-tzvppd def2/jk grid4 nofinalgrid
|  5>
|  6> *xyz 0 2
|  7> Au       0.000000    1.515176   -0.000000
|  8> Au       1.312181   -0.757588    0.000000
|  9> Au      -1.312181   -0.757588   -0.000000
| 10> *
| 11>
| 12> %maxcore 5000
| 13>
| 14> %pal
| 15> nprocs = 24
| 16> end
| 17>
| 18>
| 19>                          ****END OF INPUT****

CARTESIAN COORDINATES (ANGSTROEM)
---------------------------------
  Au     0.000000    1.515176   -0.000000
  Au     1.312181   -0.757588    0.000000
  Au    -1.312181   -0.757588   -0.000000

 Total Charge           Charge          ....    0
 Multiplicity           Mult            ....    2
 Number of Electrons    NEL             ....   57
 Basis Dimension        Dim             ....  177

ORBITAL ENERGIES
----------------
                 SPIN UP ORBITALS
  NO   OCC          E(Eh)            E(eV)
   0   1.0000      -4.289018      -116.7101
   1   1.0000      -4.288734      -116.7024
   2   1.0000      -4.269651      -116.1831
   3   1.0000      -2.470406       -67.2232
   4   1.0000      -2.464184       -67.0539
   5   1.0000      -2.461885       -66.9913
   6   1.0000      -2.459717       -66.9323
   7   1.0000      -2.458504       -66.8993
   8   1.0000      -2.457980       -66.8850
   9   1.0000      -2.445344       -66.5412
  10   1.0000      -2.441521       -66.4372
  11   1.0000      -2.436644       -66.3045
  12   1.0000      -0.508024       -13.8240
  13   1.0000      -0.474935       -12.9236
  14   1.0000      -0.467075       -12.7097
  15   1.0000      -0.464443       -12.6381
  16   1.0000      -0.441641       -12.0177
  17   1.0000      -0.436251       -11.8710
  18   1.0000      -0.429747       -11.6940
  19   1.0000      -0.405468       -11.0333
  20   1.0000      -0.399461       -10.8699
  21   1.0000      -0.398649       -10.8478
  22   1.0000      -0.391275       -10.6471
  23   1.0000      -0.390312       -10.6209
  24   1.0000      -0.386220       -10.5096
  25   1.0000      -0.383512       -10.4359
  26   1.0000      -0.375591       -10.2203
  27   1.0000      -0.358959        -9.7678
  28   1.0000      -0.236658        -6.4398
  29   0.0000      -0.074289        -2.0215
  30   0.0000       0.008653         0.2355
  31   0.0000       0.024792         0.6746
  32   0.0000       0.043073         1.1721
  33   0.0000       0.049133         1.3370

                 SPIN DOWN ORBITALS
  NO   OCC          E(Eh)            E(eV)
   0   1.0000      -4.288061      -116.6841
   1   1.0000      -4.287781      -116.6765
   2   1.0000      -4.266555      -116.0989
   3   1.0000      -2.469294       -67.1929
   4   1.0000      -2.462713       -67.0138
   5   1.0000      -2.460290       -66.9479
   6   1.0000      -2.458805       -66.9075
   7   1.0000      -2.457789       -66.8798
   8   1.0000      -2.457293       -66.8663
   9   1.0000      -2.440793       -66.4173
  10   1.0000      -2.438325       -66.3502
  11   1.0000      -2.433886       -66.2294
  12   1.0000      -0.501126       -13.6363
  13   1.0000      -0.472508       -12.8576
  14   1.0000      -0.462824       -12.5941
  15   1.0000      -0.459041       -12.4912
  16   1.0000      -0.436662       -11.8822
  17   1.0000      -0.434305       -11.8180
  18   1.0000      -0.426883       -11.6161
  19   1.0000      -0.403961       -10.9923
  20   1.0000      -0.398555       -10.8452
  21   1.0000      -0.398169       -10.8347
  22   1.0000      -0.386845       -10.5266
  23   1.0000      -0.381900       -10.3920
  24   1.0000      -0.381091       -10.3700
  25   1.0000      -0.377119       -10.2619
  26   1.0000      -0.364301        -9.9131
  27   1.0000      -0.350403        -9.5350
  28   0.0000      -0.077054        -2.0967
  29   0.0000      -0.076771        -2.0891
  30   0.0000      -0.015020        -0.4087
  31   0.0000      -0.001715        -0.0467
  32   0.0000       0.021329         0.5804

MULLIKEN ATOMIC CHARGES AND SPIN POPULATIONS
--------------------------------------------
   0 Au:   -0.138811    0.620656
   1 Au:    0.069406    0.189670
   2 Au:    0.069405    0.189675
Sum of atomic charges         :   -0.0000000

LOEWDIN ATOMIC CHARGES AND SPIN POPULATIONS
-------------------------------------------
   0 Au:   -0.094720    0.528905
   1 Au:    0.047360    0.235547
   2 Au:    0.047360    0.235548

  Mayer bond orders larger than 0.100000
B(  0-Au,  1-Au) :   0.5583 B(  0-Au,  2-Au) :   0.5583 B(  1-Au,  2-Au) :   0.7713

FINAL SINGLE POINT ENERGY      -406.957256785535

DIPOLE MOMENT
-------------
                                X             Y             Z
Electronic contribution:      0.00000      -0.58703      -0.00000
Nuclear contribution   :      0.00000       0.00000       0.00000
                        -----------------------------------------
Total Dipole Moment    :      0.00000      -0.58703      -0.00000
                        -----------------------------------------
Magnitude (a.u.)       :      0.58703
Magnitude (Debye)      :      1.49210

Rotational constants in cm-1:     0.024853     0.024853     0.012427
Rotational constants in MHz :   745.088417   745.088311   372.544182

                             ****ORCA TERMINATED NORMALLY****
TOTAL RUN TIME: 0 days 0 hours 0 minutes 15 seconds 43 msec
