                         Program Version 4.2.0 -  RELEASE  -
|  1> #
|  2> # Au03N0_LIN wB97M-V/Def2-TZVPPD
|  3> #
|  4> ! wb97m-v def2-tzvppd def2/jk grid4 nofinalgrid
|  5>
|  6> *xyz 0 2
|  7> Au       0.000000    0.000000    0.000000
|  8> Au       0.000000    0.000000    2.547414
|  9> Au       0.000000    0.000000   -2.547414
| 10> *
| 11>
| 12> %maxcore 5000
| 13>
| 14> %pal
| 15> nprocs = 24
| 16> end
| 17>
| 18>
| 19>                          ****END OF INPUT****

CARTESIAN COORDINATES (ANGSTROEM)
---------------------------------
  Au     0.000000    0.000000    0.000000
  Au     0.000000    0.000000    2.547414
  Au     0.000000    0.000000   -2.547414

 Total Charge           Charge          ....    0
 Multiplicity           Mult            ....    2
 Number of Electrons    NEL             ....   57
 Basis Dimension        Dim             ....  177

ORBITAL ENERGIES
----------------
                 SPIN UP ORBITALS
  NO   OCC          E(Eh)            E(eV)
   0   1.0000      -4.279497      -116.4510
   1   1.0000      -4.279492      -116.4509
   2   1.0000      -4.261626      -115.9647
   3   1.0000      -2.459751       -66.9332
   4   1.0000      -2.457040       -66.8595
   5   1.0000      -2.450552       -66.6829
   6   1.0000      -2.450552       -66.6829
   7   1.0000      -2.450550       -66.6829
   8   1.0000      -2.450550       -66.6829
   9   1.0000      -2.438952       -66.3672
  10   1.0000      -2.429799       -66.1182
  11   1.0000      -2.429799       -66.1182
  12   1.0000      -0.500305       -13.6140
  13   1.0000      -0.455688       -12.3999
  14   1.0000      -0.455688       -12.3999
  15   1.0000      -0.425038       -11.5659
  16   1.0000      -0.424069       -11.5395
  17   1.0000      -0.424069       -11.5395
  18   1.0000      -0.416490       -11.3333
  19   1.0000      -0.416479       -11.3330
  20   1.0000      -0.414044       -11.2667
  21   1.0000      -0.414034       -11.2664
  22   1.0000      -0.385302       -10.4846
  23   1.0000      -0.385288       -10.4842
  24   1.0000      -0.368146       -10.0178
  25   1.0000      -0.364357        -9.9147
  26   1.0000      -0.364357        -9.9147
  27   1.0000      -0.346268        -9.4224
  28   1.0000      -0.312668        -8.5081
  29   0.0000      -0.036547        -0.9945
  30   0.0000       0.015271         0.4155
  31   0.0000       0.015271         0.4155
  32   0.0000       0.033887         0.9221
  33   0.0000       0.052652         1.4327

                 SPIN DOWN ORBITALS
  NO   OCC          E(Eh)            E(eV)
   0   1.0000      -4.278140      -116.4141
   1   1.0000      -4.278134      -116.4140
   2   1.0000      -4.262431      -115.9866
   3   1.0000      -2.458980       -66.9122
   4   1.0000      -2.456110       -66.8341
   5   1.0000      -2.449074       -66.6427
   6   1.0000      -2.449074       -66.6427
   7   1.0000      -2.449014       -66.6411
   8   1.0000      -2.449014       -66.6411
   9   1.0000      -2.439759       -66.3892
  10   1.0000      -2.430842       -66.1466
  11   1.0000      -2.430842       -66.1466
  12   1.0000      -0.495357       -13.4793
  13   1.0000      -0.451486       -12.2856
  14   1.0000      -0.451486       -12.2856
  15   1.0000      -0.422824       -11.5056
  16   1.0000      -0.418733       -11.3943
  17   1.0000      -0.418733       -11.3943
  18   1.0000      -0.411088       -11.1863
  19   1.0000      -0.411078       -11.1860
  20   1.0000      -0.407918       -11.1000
  21   1.0000      -0.407908       -11.0997
  22   1.0000      -0.385618       -10.4932
  23   1.0000      -0.385604       -10.4928
  24   1.0000      -0.363464        -9.8904
  25   1.0000      -0.363464        -9.8904
  26   1.0000      -0.354715        -9.6523
  27   1.0000      -0.318689        -8.6720
  28   0.0000      -0.125283        -3.4091
  29   0.0000      -0.037025        -1.0075
  30   0.0000       0.007419         0.2019
  31   0.0000       0.007419         0.2019
  32   0.0000       0.013002         0.3538

MULLIKEN ATOMIC CHARGES AND SPIN POPULATIONS
--------------------------------------------
   0 Au:   -0.151000   -0.009932
   1 Au:    0.075495    0.504964
   2 Au:    0.075505    0.504968
Sum of atomic charges         :   -0.0000000

LOEWDIN ATOMIC CHARGES AND SPIN POPULATIONS
-------------------------------------------
   0 Au:   -0.199599    0.284814
   1 Au:    0.099799    0.357593
   2 Au:    0.099799    0.357593

  Mayer bond orders larger than 0.100000
B(  0-Au,  1-Au) :   0.7103 B(  0-Au,  2-Au) :   0.7103 B(  1-Au,  2-Au) :   0.1695

FINAL SINGLE POINT ENERGY      -406.956621975149

DIPOLE MOMENT
-------------
                                X             Y             Z
Electronic contribution:      0.00000       0.00000       0.00000
Nuclear contribution   :      0.00000       0.00000       0.00000
                        -----------------------------------------
Total Dipole Moment    :      0.00000       0.00000       0.00000
                        -----------------------------------------
Magnitude (a.u.)       :      0.00000
Magnitude (Debye)      :      0.00000

Rotational constants in cm-1:     0.000000     0.006594     0.006594
Rotational constants in MHz :     0.000000   197.695224   197.695224

                             ****ORCA TERMINATED NORMALLY****
TOTAL RUN TIME: 0 days 0 hours 0 minutes 13 seconds 262 msec
