                         Program Version 4.2.0 -  RELEASE  -
|  1> #
|  2> # Au04C2_NH3_F wB97M-V/Def2-TZVPPD
|  3> #
|  4> ! wb97m-v def2-tzvppd def2/jk grid4 nofinalgrid
|  5>
|  6> *xyz 2 1
|  7> Au       0.000000    1.548281   -0.453246
|  8> Au       1.340851   -0.774141   -0.453246
|  9> Au      -1.340851   -0.774141   -0.453246
| 10> Au       0.000000    0.000000    1.783664
| 11> N        0.000000    0.000000   -3.226055
| 12> H       -0.813891    0.469900   -3.635956
| 13> H        0.813891    0.469900   -3.635956
| 14> H       -0.000000   -0.939800   -3.635956
| 15> *
| 16>
| 17> %maxcore 5000
| 18>
| 19> %pal
| 20> nprocs = 24
| 21> end
| 22>
| 23>
| 24>                          ****END OF INPUT****

CARTESIAN COORDINATES (ANGSTROEM)
---------------------------------
  Au     0.000000    1.548281   -0.453246
  Au     1.340851   -0.774141   -0.453246
  Au    -1.340851   -0.774141   -0.453246
  Au     0.000000    0.000000    1.783664
  N      0.000000    0.000000   -3.226055
  H     -0.813891    0.469900   -3.635956
  H      0.813891    0.469900   -3.635956
  H     -0.000000   -0.939800   -3.635956

 Total Charge           Charge          ....    2
 Multiplicity           Mult            ....    1
 Number of Electrons    NEL             ....   84
 Basis Dimension        Dim             ....  324

ORBITAL ENERGIES
----------------

  NO   OCC          E(Eh)            E(eV)
   0   2.0000     -14.799656      -402.7191
   1   2.0000      -4.639254      -126.2405
   2   2.0000      -4.638959      -126.2325
   3   2.0000      -4.638958      -126.2325
   4   2.0000      -4.634208      -126.1032
   5   2.0000      -2.821653       -76.7811
   6   2.0000      -2.816215       -76.6331
   7   2.0000      -2.816212       -76.6330
   8   2.0000      -2.813068       -76.5475
   9   2.0000      -2.811658       -76.5091
  10   2.0000      -2.811652       -76.5089
  11   2.0000      -2.809649       -76.4544
  12   2.0000      -2.809311       -76.4452
  13   2.0000      -2.809310       -76.4452
  14   2.0000      -2.808508       -76.4234
  15   2.0000      -2.805116       -76.3311
  16   2.0000      -2.805114       -76.3310
  17   2.0000      -1.279590       -34.8194
  18   2.0000      -0.880258       -23.9530
  19   2.0000      -0.866948       -23.5909
  20   2.0000      -0.866948       -23.5909
  21   2.0000      -0.835681       -22.7400
  22   2.0000      -0.831396       -22.6234
  23   2.0000      -0.831392       -22.6233
  24   2.0000      -0.814089       -22.1525
  25   2.0000      -0.814086       -22.1524
  26   2.0000      -0.795736       -21.6531
  27   2.0000      -0.788665       -21.4607
  28   2.0000      -0.788659       -21.4605
  29   2.0000      -0.764055       -20.7910
  30   2.0000      -0.753070       -20.4921
  31   2.0000      -0.753064       -20.4919
  32   2.0000      -0.752464       -20.4756
  33   2.0000      -0.751343       -20.4451
  34   2.0000      -0.751335       -20.4449
  35   2.0000      -0.749146       -20.3853
  36   2.0000      -0.749139       -20.3851
  37   2.0000      -0.746973       -20.3262
  38   2.0000      -0.715701       -19.4752
  39   2.0000      -0.715609       -19.4727
  40   2.0000      -0.715608       -19.4727
  41   2.0000      -0.674856       -18.3638
  42   0.0000      -0.383982       -10.4487
  43   0.0000      -0.383982       -10.4487
  44   0.0000      -0.373001       -10.1499
  45   0.0000      -0.263528        -7.1710
  46   0.0000      -0.248691        -6.7672

MULLIKEN ATOMIC CHARGES
-----------------------
   0 Au:    0.480278
   1 Au:    0.480096
   2 Au:    0.480099
   3 Au:    0.417685
   4 N :   -0.379476
   5 H :    0.173896
   6 H :    0.173893
   7 H :    0.173530
Sum of atomic charges:    2.0000000

LOEWDIN ATOMIC CHARGES
----------------------
   0 Au:    0.470647
   1 Au:    0.470645
   2 Au:    0.470645
   3 Au:    0.476710
   4 N :    0.431230
   5 H :   -0.106623
   6 H :   -0.106623
   7 H :   -0.106630

  Mayer bond orders larger than 0.100000
B(  0-Au,  1-Au) :   0.4026 B(  0-Au,  2-Au) :   0.4026 B(  0-Au,  3-Au) :   0.4232
B(  1-Au,  2-Au) :   0.4027 B(  1-Au,  3-Au) :   0.4232 B(  2-Au,  3-Au) :   0.4232
B(  4-N ,  5-H ) :   1.0145 B(  4-N ,  6-H ) :   1.0145 B(  4-N ,  7-H ) :   1.0152

FINAL SINGLE POINT ENERGY      -598.569076717125

DIPOLE MOMENT
-------------
                                X             Y             Z
Electronic contribution:      0.00000      -0.00009      51.83986
Nuclear contribution   :      0.00000       0.00000     -53.58194
                        -----------------------------------------
Total Dipole Moment    :      0.00000      -0.00008      -1.74208
                        -----------------------------------------
Magnitude (a.u.)       :      1.74208
Magnitude (Debye)      :      4.42801

Rotational constants in cm-1:     0.011879     0.010264     0.010264
Rotational constants in MHz :   356.111583   307.700803   307.700796

                             ****ORCA TERMINATED NORMALLY****
TOTAL RUN TIME: 0 days 0 hours 0 minutes 45 seconds 579 msec
