                         Program Version 4.2.0 -  RELEASE  -
|  1> #
|  2> # Au04C2 wB97M-V/Def2-TZVPPD
|  3> #
|  4> ! wb97m-v def2-tzvppd def2/jk grid4 nofinalgrid
|  5>
|  6> *xyz 2 1
|  7> Au      -0.000000   -0.000044    1.659420
|  8> Au      -1.354966    0.782292   -0.553161
|  9> Au       1.354966    0.782292   -0.553161
| 10> Au       0.000000   -1.564540   -0.553099
| 11> *
| 12>
| 13> %maxcore 5000
| 14>
| 15> %pal
| 16> nprocs = 24
| 17> end
| 18>
| 19>
| 20>                          ****END OF INPUT****

CARTESIAN COORDINATES (ANGSTROEM)
---------------------------------
  Au    -0.000000   -0.000044    1.659420
  Au    -1.354966    0.782292   -0.553161
  Au     1.354966    0.782292   -0.553161
  Au     0.000000   -1.564540   -0.553099

 Total Charge           Charge          ....    2
 Multiplicity           Mult            ....    1
 Number of Electrons    NEL             ....   74
 Basis Dimension        Dim             ....  236

ORBITAL ENERGIES
----------------

  NO   OCC          E(Eh)            E(eV)
   0   2.0000      -4.664584      -126.9298
   1   2.0000      -4.664266      -126.9211
   2   2.0000      -4.664264      -126.9211
   3   2.0000      -4.664262      -126.9210
   4   2.0000      -2.847256       -77.4778
   5   2.0000      -2.841556       -77.3227
   6   2.0000      -2.841556       -77.3227
   7   2.0000      -2.841552       -77.3226
   8   2.0000      -2.837039       -77.1998
   9   2.0000      -2.837035       -77.1997
  10   2.0000      -2.835336       -77.1534
  11   2.0000      -2.835331       -77.1533
  12   2.0000      -2.835329       -77.1532
  13   2.0000      -2.834330       -77.1260
  14   2.0000      -2.834329       -77.1260
  15   2.0000      -2.834324       -77.1259
  16   2.0000      -0.904344       -24.6084
  17   2.0000      -0.857320       -23.3289
  18   2.0000      -0.857318       -23.3288
  19   2.0000      -0.857313       -23.3287
  20   2.0000      -0.839829       -22.8529
  21   2.0000      -0.839826       -22.8528
  22   2.0000      -0.816125       -22.2079
  23   2.0000      -0.816118       -22.2077
  24   2.0000      -0.816117       -22.2077
  25   2.0000      -0.778356       -21.1801
  26   2.0000      -0.778351       -21.1800
  27   2.0000      -0.778348       -21.1799
  28   2.0000      -0.778189       -21.1756
  29   2.0000      -0.778183       -21.1754
  30   2.0000      -0.778183       -21.1754
  31   2.0000      -0.775553       -21.1039
  32   2.0000      -0.775545       -21.1036
  33   2.0000      -0.766867       -20.8675
  34   2.0000      -0.742108       -20.1938
  35   2.0000      -0.742104       -20.1937
  36   2.0000      -0.742100       -20.1936
  37   0.0000      -0.405388       -11.0312
  38   0.0000      -0.405385       -11.0311
  39   0.0000      -0.405382       -11.0310
  40   0.0000      -0.277813        -7.5597
  41   0.0000      -0.265087        -7.2134

MULLIKEN ATOMIC CHARGES
-----------------------
   0 Au:    0.500064
   1 Au:    0.500081
   2 Au:    0.500060
   3 Au:    0.499795
Sum of atomic charges:    2.0000000

LOEWDIN ATOMIC CHARGES
----------------------
   0 Au:    0.500003
   1 Au:    0.500009
   2 Au:    0.500008
   3 Au:    0.499980

  Mayer bond orders larger than 0.100000
B(  0-Au,  1-Au) :   0.4183 B(  0-Au,  2-Au) :   0.4183 B(  0-Au,  3-Au) :   0.4184
B(  1-Au,  2-Au) :   0.4182 B(  1-Au,  3-Au) :   0.4184 B(  2-Au,  3-Au) :   0.4184

FINAL SINGLE POINT ENERGY      -541.976302811557

DIPOLE MOMENT
-------------
                                X             Y             Z
Electronic contribution:      0.00000       0.00007       0.00000
Nuclear contribution   :      0.00000       0.00000       0.00000
                        -----------------------------------------
Total Dipole Moment    :      0.00000       0.00007       0.00000
                        -----------------------------------------
Magnitude (a.u.)       :      0.00007
Magnitude (Debye)      :      0.00018

Rotational constants in cm-1:     0.011655     0.011655     0.011654
Rotational constants in MHz :   349.408482   349.408217   349.388110

                             ****ORCA TERMINATED NORMALLY****
TOTAL RUN TIME: 0 days 0 hours 0 minutes 22 seconds 445 msec
