                         Program Version 4.2.0 -  RELEASE  -
|  1> #
|  2> # Au04C2_H_A wB97M-V/Def2-TZVPPD
|  3> #
|  4> ! wb97m-v def2-tzvppd def2/jk grid4 nofinalgrid
|  5>
|  6> *xyz 2 2
|  7> Au       0.000000    0.000000    1.750714
|  8> Au      -0.000000    1.549973   -0.597614
|  9> Au       1.342316   -0.774986   -0.597614
| 10> Au      -1.342316   -0.774986   -0.597614
| 11> H        0.000000    0.000000    3.328141
| 12> *
| 13>
| 14> %maxcore 5000
| 15>
| 16> %pal
| 17> nprocs = 24
| 18> end
| 19>
| 20>
| 21>                          ****END OF INPUT****

CARTESIAN COORDINATES (ANGSTROEM)
---------------------------------
  Au     0.000000    0.000000    1.750714
  Au    -0.000000    1.549973   -0.597614
  Au     1.342316   -0.774986   -0.597614
  Au    -1.342316   -0.774986   -0.597614
  H      0.000000    0.000000    3.328141

 Total Charge           Charge          ....    2
 Multiplicity           Mult            ....    2
 Number of Electrons    NEL             ....   75
 Basis Dimension        Dim             ....  253

ORBITAL ENERGIES
----------------
                 SPIN UP ORBITALS
  NO   OCC          E(Eh)            E(eV)
   0   1.0000      -4.706368      -128.0668
   1   1.0000      -4.666383      -126.9787
   2   1.0000      -4.666100      -126.9710
   3   1.0000      -4.666099      -126.9710
   4   1.0000      -2.890808       -78.6629
   5   1.0000      -2.871113       -78.1270
   6   1.0000      -2.871112       -78.1269
   7   1.0000      -2.848034       -77.4989
   8   1.0000      -2.842944       -77.3604
   9   1.0000      -2.842941       -77.3604
  10   1.0000      -2.837981       -77.2254
  11   1.0000      -2.837976       -77.2253
  12   1.0000      -2.837778       -77.2199
  13   1.0000      -2.836495       -77.1849
  14   1.0000      -2.836494       -77.1849
  15   1.0000      -2.835895       -77.1686
  16   1.0000      -0.944079       -25.6897
  17   1.0000      -0.873608       -23.7721
  18   1.0000      -0.867128       -23.5957
  19   1.0000      -0.867127       -23.5957
  20   1.0000      -0.847332       -23.0571
  21   1.0000      -0.847331       -23.0571
  22   1.0000      -0.841957       -22.9108
  23   1.0000      -0.828896       -22.5554
  24   1.0000      -0.828889       -22.5552
  25   1.0000      -0.819384       -22.2966
  26   1.0000      -0.798161       -21.7191
  27   1.0000      -0.798160       -21.7190
  28   1.0000      -0.782417       -21.2906
  29   1.0000      -0.779229       -21.2039
  30   1.0000      -0.779223       -21.2037
  31   1.0000      -0.778311       -21.1789
  32   1.0000      -0.776815       -21.1382
  33   1.0000      -0.776809       -21.1380
  34   1.0000      -0.760436       -20.6925
  35   1.0000      -0.760432       -20.6924
  36   1.0000      -0.741043       -20.1648
  37   1.0000      -0.717322       -19.5193
  38   0.0000      -0.407544       -11.0898
  39   0.0000      -0.407544       -11.0898
  40   0.0000      -0.354018        -9.6333
  41   0.0000      -0.273746        -7.4490
  42   0.0000      -0.269793        -7.3414

                 SPIN DOWN ORBITALS
  NO   OCC          E(Eh)            E(eV)
   0   1.0000      -4.698547      -127.8540
   1   1.0000      -4.666080      -126.9705
   2   1.0000      -4.665801      -126.9629
   3   1.0000      -4.665800      -126.9629
   4   1.0000      -2.876130       -78.2635
   5   1.0000      -2.864422       -77.9449
   6   1.0000      -2.864422       -77.9449
   7   1.0000      -2.847632       -77.4880
   8   1.0000      -2.842602       -77.3511
   9   1.0000      -2.842599       -77.3511
  10   1.0000      -2.837709       -77.2180
  11   1.0000      -2.837704       -77.2179
  12   1.0000      -2.837101       -77.2014
  13   1.0000      -2.836075       -77.1735
  14   1.0000      -2.836075       -77.1735
  15   1.0000      -2.835798       -77.1660
  16   1.0000      -0.924674       -25.1617
  17   1.0000      -0.868624       -23.6365
  18   1.0000      -0.863435       -23.4953
  19   1.0000      -0.863434       -23.4952
  20   1.0000      -0.844768       -22.9873
  21   1.0000      -0.844767       -22.9873
  22   1.0000      -0.828935       -22.5565
  23   1.0000      -0.821541       -22.3553
  24   1.0000      -0.821534       -22.3551
  25   1.0000      -0.816930       -22.2298
  26   1.0000      -0.793334       -21.5877
  27   1.0000      -0.793332       -21.5877
  28   1.0000      -0.778763       -21.1912
  29   1.0000      -0.778758       -21.1911
  30   1.0000      -0.777748       -21.1636
  31   1.0000      -0.776359       -21.1258
  32   1.0000      -0.776353       -21.1256
  33   1.0000      -0.761913       -20.7327
  34   1.0000      -0.756405       -20.5828
  35   1.0000      -0.756401       -20.5827
  36   1.0000      -0.741288       -20.1715
  37   0.0000      -0.467739       -12.7278
  38   0.0000      -0.407193       -11.0803
  39   0.0000      -0.407193       -11.0803
  40   0.0000      -0.341728        -9.2989
  41   0.0000      -0.271946        -7.4000

MULLIKEN ATOMIC CHARGES AND SPIN POPULATIONS
--------------------------------------------
   0 Au:    0.280203    0.636492
   1 Au:    0.491673    0.023047
   2 Au:    0.492056    0.023021
   3 Au:    0.492052    0.023024
   4 H :    0.244016    0.294415
Sum of atomic charges         :    2.0000000

LOEWDIN ATOMIC CHARGES AND SPIN POPULATIONS
-------------------------------------------
   0 Au:    0.579362    0.548973
   1 Au:    0.486752    0.037953
   2 Au:    0.486755    0.037952
   3 Au:    0.486755    0.037953
   4 H :   -0.039624    0.337169

  Mayer bond orders larger than 0.100000
B(  0-Au,  1-Au) :   0.3034 B(  0-Au,  2-Au) :   0.3032 B(  0-Au,  3-Au) :   0.3032
B(  0-Au,  4-H ) :   0.8470 B(  1-Au,  2-Au) :   0.4655 B(  1-Au,  3-Au) :   0.4655
B(  2-Au,  3-Au) :   0.4653

FINAL SINGLE POINT ENERGY      -542.518176601643

DIPOLE MOMENT
-------------
                                X             Y             Z
Electronic contribution:      0.00000      -0.00006      -5.64486
Nuclear contribution   :      0.00000      -0.00000       5.68843
                        -----------------------------------------
Total Dipole Moment    :      0.00000      -0.00006       0.04357
                        -----------------------------------------
Magnitude (a.u.)       :      0.04357
Magnitude (Debye)      :      0.11075

Rotational constants in cm-1:     0.011875     0.010977     0.010977
Rotational constants in MHz :   356.004762   329.094939   329.094872

                             ****ORCA TERMINATED NORMALLY****
TOTAL RUN TIME: 0 days 0 hours 0 minutes 32 seconds 393 msec
