                         Program Version 4.2.0 -  RELEASE  -
|  1> #
|  2> # Au04N0 wB97M-V/Def2-TZVPPD
|  3> #
|  4> ! wb97m-v def2-tzvppd def2/jk grid4 nofinalgrid
|  5>
|  6> *xyz 0 1
|  7> Au      -0.788661   -0.016684    2.209526
|  8> Au      -1.223332   -0.011467   -0.436740
|  9> Au       0.788385    0.016579   -2.209564
| 10> Au       1.223608    0.011572    0.436778
| 11> *
| 12>
| 13> %maxcore 5000
| 14>
| 15> %pal
| 16> nprocs = 24
| 17> end
| 18>
| 19>
| 20>                          ****END OF INPUT****

CARTESIAN COORDINATES (ANGSTROEM)
---------------------------------
  Au    -0.788661   -0.016684    2.209526
  Au    -1.223332   -0.011467   -0.436740
  Au     0.788385    0.016579   -2.209564
  Au     1.223608    0.011572    0.436778

 Total Charge           Charge          ....    0
 Multiplicity           Mult            ....    1
 Number of Electrons    NEL             ....   76
 Basis Dimension        Dim             ....  236

ORBITAL ENERGIES
----------------

  NO   OCC          E(Eh)            E(eV)
   0   2.0000      -4.291304      -116.7723
   1   2.0000      -4.290971      -116.7633
   2   2.0000      -4.265068      -116.0584
   3   2.0000      -4.265059      -116.0582
   4   2.0000      -2.471701       -67.2584
   5   2.0000      -2.465165       -67.0805
   6   2.0000      -2.464237       -67.0553
   7   2.0000      -2.463655       -67.0395
   8   2.0000      -2.460872       -66.9637
   9   2.0000      -2.460322       -66.9488
  10   2.0000      -2.440611       -66.4124
  11   2.0000      -2.440192       -66.4010
  12   2.0000      -2.437295       -66.3222
  13   2.0000      -2.437136       -66.3179
  14   2.0000      -2.432830       -66.2007
  15   2.0000      -2.432804       -66.2000
  16   2.0000      -0.501252       -13.6397
  17   2.0000      -0.501143       -13.6368
  18   2.0000      -0.470133       -12.7930
  19   2.0000      -0.465988       -12.6802
  20   2.0000      -0.465218       -12.6592
  21   2.0000      -0.451902       -12.2969
  22   2.0000      -0.433177       -11.7874
  23   2.0000      -0.432772       -11.7763
  24   2.0000      -0.408057       -11.1038
  25   2.0000      -0.401931       -10.9371
  26   2.0000      -0.401525       -10.9261
  27   2.0000      -0.396443       -10.7878
  28   2.0000      -0.393434       -10.7059
  29   2.0000      -0.392286       -10.6746
  30   2.0000      -0.385737       -10.4964
  31   2.0000      -0.378836       -10.3086
  32   2.0000      -0.378220       -10.2919
  33   2.0000      -0.374886       -10.2012
  34   2.0000      -0.374527       -10.1914
  35   2.0000      -0.374278       -10.1846
  36   2.0000      -0.347638        -9.4597
  37   2.0000      -0.275667        -7.5013
  38   0.0000      -0.069096        -1.8802
  39   0.0000      -0.033348        -0.9074
  40   0.0000       0.002460         0.0669
  41   0.0000       0.030286         0.8241
  42   0.0000       0.031912         0.8684

MULLIKEN ATOMIC CHARGES
-----------------------
   0 Au:   -0.133400
   1 Au:    0.133347
   2 Au:   -0.133372
   3 Au:    0.133425
Sum of atomic charges:   -0.0000000

LOEWDIN ATOMIC CHARGES
----------------------
   0 Au:    0.091953
   1 Au:   -0.092048
   2 Au:    0.091974
   3 Au:   -0.091878

  Mayer bond orders larger than 0.100000
B(  0-Au,  1-Au) :   0.5595 B(  0-Au,  2-Au) :   0.1532 B(  0-Au,  3-Au) :   0.5596
B(  1-Au,  2-Au) :   0.5597 B(  1-Au,  3-Au) :   0.4562 B(  2-Au,  3-Au) :   0.5594

FINAL SINGLE POINT ENERGY      -542.669974775567

DIPOLE MOMENT
-------------
                                X             Y             Z
Electronic contribution:      0.00039       0.00000       0.00000
Nuclear contribution   :     -0.00000      -0.00000       0.00000
                        -----------------------------------------
Total Dipole Moment    :      0.00039       0.00000       0.00000
                        -----------------------------------------
Magnitude (a.u.)       :      0.00039
Magnitude (Debye)      :      0.00099

Rotational constants in cm-1:     0.025355     0.007775     0.005950
Rotational constants in MHz :   760.119680   233.080651   178.382130

                             ****ORCA TERMINATED NORMALLY****
TOTAL RUN TIME: 0 days 0 hours 0 minutes 24 seconds 976 msec
