                         Program Version 4.2.0 -  RELEASE  -
|  1> #
|  2> # Au04C2_NH3_A wB97M-V/Def2-TZVPPD
|  3> #
|  4> ! wb97m-v def2-tzvppd def2/jk grid4 nofinalgrid
|  5>
|  6> *xyz 2 1
|  7> Au      -0.274490    1.572639   -0.000000
|  8> Au       1.635934   -0.418177    0.000000
|  9> Au      -0.639028   -0.815642    1.333593
| 10> Au      -0.639028   -0.815642   -1.333593
| 11> N       -0.639028    3.654013   -0.000000
| 12> H       -0.235750    4.112347    0.824759
| 13> H       -0.235750    4.112347   -0.824759
| 14> H       -1.642949    3.866239   -0.000000
| 15> *
| 16>
| 17> %maxcore 5000
| 18>
| 19> %pal
| 20> nprocs = 24
| 21> end
| 22>
| 23>
| 24>                          ****END OF INPUT****

CARTESIAN COORDINATES (ANGSTROEM)
---------------------------------
  Au    -0.274490    1.572639   -0.000000
  Au     1.635934   -0.418177    0.000000
  Au    -0.639028   -0.815642    1.333593
  Au    -0.639028   -0.815642   -1.333593
  N     -0.639028    3.654013   -0.000000
  H     -0.235750    4.112347    0.824759
  H     -0.235750    4.112347   -0.824759
  H     -1.642949    3.866239   -0.000000

 Total Charge           Charge          ....    2
 Multiplicity           Mult            ....    1
 Number of Electrons    NEL             ....   84
 Basis Dimension        Dim             ....  324

ORBITAL ENERGIES
----------------

  NO   OCC          E(Eh)            E(eV)
   0   2.0000     -14.862624      -404.4326
   1   2.0000      -4.629769      -125.9824
   2   2.0000      -4.629454      -125.9739
   3   2.0000      -4.629444      -125.9736
   4   2.0000      -4.623558      -125.8134
   5   2.0000      -2.812381       -76.5288
   6   2.0000      -2.806557       -76.3703
   7   2.0000      -2.806554       -76.3702
   8   2.0000      -2.803963       -76.2997
   9   2.0000      -2.801545       -76.2339
  10   2.0000      -2.801542       -76.2338
  11   2.0000      -2.799697       -76.1836
  12   2.0000      -2.799688       -76.1834
  13   2.0000      -2.799553       -76.1797
  14   2.0000      -2.799323       -76.1735
  15   2.0000      -2.790970       -75.9462
  16   2.0000      -2.790964       -75.9460
  17   2.0000      -1.334976       -36.3265
  18   2.0000      -0.923180       -25.1210
  19   2.0000      -0.923170       -25.1207
  20   2.0000      -0.885457       -24.0945
  21   2.0000      -0.837649       -22.7936
  22   2.0000      -0.818446       -22.2710
  23   2.0000      -0.818407       -22.2700
  24   2.0000      -0.805961       -21.9313
  25   2.0000      -0.800648       -21.7867
  26   2.0000      -0.800645       -21.7867
  27   2.0000      -0.783094       -21.3091
  28   2.0000      -0.775746       -21.1091
  29   2.0000      -0.775743       -21.1090
  30   2.0000      -0.742790       -20.2123
  31   2.0000      -0.742770       -20.2118
  32   2.0000      -0.741485       -20.1768
  33   2.0000      -0.740036       -20.1374
  34   2.0000      -0.740035       -20.1374
  35   2.0000      -0.735285       -20.0081
  36   2.0000      -0.735274       -20.0078
  37   2.0000      -0.734504       -19.9869
  38   2.0000      -0.704804       -19.1787
  39   2.0000      -0.704504       -19.1705
  40   2.0000      -0.704487       -19.1701
  41   2.0000      -0.693369       -18.8675
  42   0.0000      -0.374641       -10.1945
  43   0.0000      -0.374624       -10.1940
  44   0.0000      -0.332421        -9.0456
  45   0.0000      -0.248688        -6.7671
  46   0.0000      -0.237628        -6.4662

MULLIKEN ATOMIC CHARGES
-----------------------
   0 Au:    0.285094
   1 Au:    0.433081
   2 Au:    0.433071
   3 Au:    0.433078
   4 N :   -0.276183
   5 H :    0.230642
   6 H :    0.230641
   7 H :    0.230576
Sum of atomic charges:    2.0000000

LOEWDIN ATOMIC CHARGES
----------------------
   0 Au:    0.410788
   1 Au:    0.458730
   2 Au:    0.458779
   3 Au:    0.458779
   4 N :    0.403606
   5 H :   -0.063562
   6 H :   -0.063562
   7 H :   -0.063558

  Mayer bond orders larger than 0.100000
B(  0-Au,  1-Au) :   0.3140 B(  0-Au,  2-Au) :   0.3139 B(  0-Au,  3-Au) :   0.3139
B(  0-Au,  4-N ) :   0.6600 B(  1-Au,  2-Au) :   0.4778 B(  1-Au,  3-Au) :   0.4778
B(  2-Au,  3-Au) :   0.4776 B(  4-N ,  5-H ) :   0.9648 B(  4-N ,  6-H ) :   0.9648
B(  4-N ,  7-H ) :   0.9648

FINAL SINGLE POINT ENERGY      -598.632846561143

DIPOLE MOMENT
-------------
                                X             Y             Z
Electronic contribution:     10.10610     -57.79011       0.00000
Nuclear contribution   :    -10.53350      60.23199       0.00000
                        -----------------------------------------
Total Dipole Moment    :     -0.42740       2.44187       0.00000
                        -----------------------------------------
Magnitude (a.u.)       :      2.47899
Magnitude (Debye)      :      6.30110

Rotational constants in cm-1:     0.012010     0.009744     0.009743
Rotational constants in MHz :   360.039216   292.121240   292.077350

                             ****ORCA TERMINATED NORMALLY****
TOTAL RUN TIME: 0 days 0 hours 0 minutes 46 seconds 754 msec
