                         Program Version 4.2.0 -  RELEASE  -
|  1> #
|  2> # Au04C2_H_E wB97M-V/Def2-TZVPPD
|  3> #
|  4> ! wb97m-v def2-tzvppd def2/jk grid4 nofinalgrid
|  5>
|  6> *xyz 2 2
|  7> Au       0.000000    1.337591    1.056475
|  8> Au      -0.000000   -1.337591    1.056475
|  9> Au      -1.306954    0.000000   -1.070288
| 10> Au       1.306954   -0.000000   -1.070288
| 11> H       -0.000000    0.000000    2.182427
| 12> *
| 13>
| 14> %maxcore 5000
| 15>
| 16> %pal
| 17> nprocs = 24
| 18> end
| 19>
| 20>
| 21>                          ****END OF INPUT****

CARTESIAN COORDINATES (ANGSTROEM)
---------------------------------
  Au     0.000000    1.337591    1.056475
  Au    -0.000000   -1.337591    1.056475
  Au    -1.306954    0.000000   -1.070288
  Au     1.306954   -0.000000   -1.070288
  H     -0.000000    0.000000    2.182427

 Total Charge           Charge          ....    2
 Multiplicity           Mult            ....    2
 Number of Electrons    NEL             ....   75
 Basis Dimension        Dim             ....  253

ORBITAL ENERGIES
----------------
                 SPIN UP ORBITALS
  NO   OCC          E(Eh)            E(eV)
   0   1.0000      -4.691054      -127.6501
   1   1.0000      -4.690839      -127.6442
   2   1.0000      -4.659880      -126.8018
   3   1.0000      -4.659585      -126.7938
   4   1.0000      -2.873713       -78.1977
   5   1.0000      -2.868866       -78.0658
   6   1.0000      -2.864639       -77.9508
   7   1.0000      -2.863045       -77.9074
   8   1.0000      -2.857599       -77.7592
   9   1.0000      -2.857124       -77.7463
  10   1.0000      -2.840317       -77.2890
  11   1.0000      -2.834838       -77.1399
  12   1.0000      -2.832423       -77.0741
  13   1.0000      -2.830591       -77.0243
  14   1.0000      -2.830181       -77.0132
  15   1.0000      -2.829973       -77.0075
  16   1.0000      -0.958257       -26.0755
  17   1.0000      -0.906882       -24.6775
  18   1.0000      -0.863887       -23.5076
  19   1.0000      -0.863295       -23.4915
  20   1.0000      -0.857197       -23.3255
  21   1.0000      -0.843549       -22.9541
  22   1.0000      -0.836948       -22.7745
  23   1.0000      -0.834852       -22.7175
  24   1.0000      -0.820389       -22.3239
  25   1.0000      -0.807965       -21.9858
  26   1.0000      -0.803608       -21.8673
  27   1.0000      -0.798475       -21.7276
  28   1.0000      -0.795514       -21.6470
  29   1.0000      -0.793804       -21.6005
  30   1.0000      -0.781001       -21.2521
  31   1.0000      -0.777518       -21.1573
  32   1.0000      -0.769514       -20.9395
  33   1.0000      -0.768391       -20.9090
  34   1.0000      -0.766901       -20.8684
  35   1.0000      -0.756527       -20.5861
  36   1.0000      -0.744782       -20.2666
  37   1.0000      -0.660914       -17.9844
  38   0.0000      -0.415721       -11.3123
  39   0.0000      -0.403151       -10.9703
  40   0.0000      -0.341145        -9.2830
  41   0.0000      -0.285025        -7.7559
  42   0.0000      -0.281500        -7.6600

                 SPIN DOWN ORBITALS
  NO   OCC          E(Eh)            E(eV)
   0   1.0000      -4.686991      -127.5395
   1   1.0000      -4.686804      -127.5344
   2   1.0000      -4.658649      -126.7683
   3   1.0000      -4.658360      -126.7604
   4   1.0000      -2.866530       -78.0023
   5   1.0000      -2.861436       -77.8636
   6   1.0000      -2.858915       -77.7950
   7   1.0000      -2.858136       -77.7738
   8   1.0000      -2.855459       -77.7010
   9   1.0000      -2.855059       -77.6901
  10   1.0000      -2.838922       -77.2510
  11   1.0000      -2.833162       -77.0943
  12   1.0000      -2.830296       -77.0163
  13   1.0000      -2.829608       -76.9976
  14   1.0000      -2.829290       -76.9889
  15   1.0000      -2.828699       -76.9728
  16   1.0000      -0.938739       -25.5444
  17   1.0000      -0.898532       -24.4503
  18   1.0000      -0.859763       -23.3953
  19   1.0000      -0.859403       -23.3856
  20   1.0000      -0.852694       -23.2030
  21   1.0000      -0.838943       -22.8288
  22   1.0000      -0.833569       -22.6826
  23   1.0000      -0.830633       -22.6027
  24   1.0000      -0.811609       -22.0850
  25   1.0000      -0.799236       -21.7483
  26   1.0000      -0.796239       -21.6668
  27   1.0000      -0.795960       -21.6592
  28   1.0000      -0.789363       -21.4797
  29   1.0000      -0.787689       -21.4341
  30   1.0000      -0.777382       -21.1536
  31   1.0000      -0.770334       -20.9619
  32   1.0000      -0.767676       -20.8895
  33   1.0000      -0.767096       -20.8737
  34   1.0000      -0.754029       -20.5182
  35   1.0000      -0.753365       -20.5001
  36   1.0000      -0.739028       -20.1100
  37   0.0000      -0.458177       -12.4676
  38   0.0000      -0.415704       -11.3119
  39   0.0000      -0.399002       -10.8574
  40   0.0000      -0.328937        -8.9508
  41   0.0000      -0.289578        -7.8798

MULLIKEN ATOMIC CHARGES AND SPIN POPULATIONS
--------------------------------------------
   0 Au:    0.479100    0.163896
   1 Au:    0.479105    0.163900
   2 Au:    0.445245    0.227504
   3 Au:    0.445254    0.227505
   4 H :    0.151296    0.217196
Sum of atomic charges         :    2.0000000

LOEWDIN ATOMIC CHARGES AND SPIN POPULATIONS
-------------------------------------------
   0 Au:    0.573931    0.262997
   1 Au:    0.573932    0.262997
   2 Au:    0.485015    0.160245
   3 Au:    0.485015    0.160245
   4 H :   -0.117893    0.153517

  Mayer bond orders larger than 0.100000
B(  0-Au,  1-Au) :   0.5328 B(  0-Au,  2-Au) :   0.3159 B(  0-Au,  3-Au) :   0.3159
B(  0-Au,  4-H ) :   0.4707 B(  1-Au,  2-Au) :   0.3159 B(  1-Au,  3-Au) :   0.3159
B(  1-Au,  4-H ) :   0.4707 B(  2-Au,  3-Au) :   0.6029

FINAL SINGLE POINT ENERGY      -542.518450200944

DIPOLE MOMENT
-------------
                                X             Y             Z
Electronic contribution:     -0.00000      -0.00000      -3.56451
Nuclear contribution   :      0.00000       0.00000       3.73018
                        -----------------------------------------
Total Dipole Moment    :     -0.00000      -0.00000       0.16568
                        -----------------------------------------
Magnitude (a.u.)       :      0.16568
Magnitude (Debye)      :      0.42112

Rotational constants in cm-1:     0.012236     0.010747     0.010533
Rotational constants in MHz :   366.830155   322.181581   315.756842

                             ****ORCA TERMINATED NORMALLY****
TOTAL RUN TIME: 0 days 0 hours 0 minutes 33 seconds 249 msec
