                         Program Version 4.2.0 -  RELEASE  -
|  1> #
|  2> # Au04C2_H_F wB97M-V/Def2-TZVPPD
|  3> #
|  4> ! wb97m-v def2-tzvppd def2/jk grid4 nofinalgrid
|  5>
|  6> *xyz 2 2
|  7> Au       0.000000    1.567068   -0.568281
|  8> Au       1.357120   -0.783534   -0.568281
|  9> Au      -1.357120   -0.783534   -0.568281
| 10> Au       0.000000    0.000000    1.725922
| 11> H        0.000000    0.000000   -1.665144
| 12> *
| 13>
| 14> %maxcore 5000
| 15>
| 16> %pal
| 17> nprocs = 24
| 18> end
| 19>
| 20>
| 21>                          ****END OF INPUT****

CARTESIAN COORDINATES (ANGSTROEM)
---------------------------------
  Au     0.000000    1.567068   -0.568281
  Au     1.357120   -0.783534   -0.568281
  Au    -1.357120   -0.783534   -0.568281
  Au     0.000000    0.000000    1.725922
  H      0.000000    0.000000   -1.665144

 Total Charge           Charge          ....    2
 Multiplicity           Mult            ....    2
 Number of Electrons    NEL             ....   75
 Basis Dimension        Dim             ....  253

ORBITAL ENERGIES
----------------
                 SPIN UP ORBITALS
  NO   OCC          E(Eh)            E(eV)
   0   1.0000      -4.686487      -127.5258
   1   1.0000      -4.686239      -127.5190
   2   1.0000      -4.686239      -127.5190
   3   1.0000      -4.648002      -126.4786
   4   1.0000      -2.869285       -78.0772
   5   1.0000      -2.864186       -77.9385
   6   1.0000      -2.864184       -77.9384
   7   1.0000      -2.858489       -77.7834
   8   1.0000      -2.857891       -77.7672
   9   1.0000      -2.857888       -77.7671
  10   1.0000      -2.856569       -77.7312
  11   1.0000      -2.856566       -77.7311
  12   1.0000      -2.854986       -77.6881
  13   1.0000      -2.824726       -76.8647
  14   1.0000      -2.818670       -76.6999
  15   1.0000      -2.818668       -76.6999
  16   1.0000      -0.982275       -26.7291
  17   1.0000      -0.906758       -24.6741
  18   1.0000      -0.867958       -23.6183
  19   1.0000      -0.867953       -23.6182
  20   1.0000      -0.849425       -23.1140
  21   1.0000      -0.849424       -23.1140
  22   1.0000      -0.843907       -22.9639
  23   1.0000      -0.824391       -22.4328
  24   1.0000      -0.824390       -22.4328
  25   1.0000      -0.815022       -22.1779
  26   1.0000      -0.803419       -21.8622
  27   1.0000      -0.803411       -21.8619
  28   1.0000      -0.797540       -21.7022
  29   1.0000      -0.797537       -21.7021
  30   1.0000      -0.796597       -21.6765
  31   1.0000      -0.771193       -20.9852
  32   1.0000      -0.771187       -20.9851
  33   1.0000      -0.767509       -20.8850
  34   1.0000      -0.762893       -20.7594
  35   1.0000      -0.751206       -20.4414
  36   1.0000      -0.751201       -20.4412
  37   1.0000      -0.638193       -17.3661
  38   0.0000      -0.416407       -11.3310
  39   0.0000      -0.416404       -11.3309
  40   0.0000      -0.343188        -9.3386
  41   0.0000      -0.285077        -7.7573
  42   0.0000      -0.270220        -7.3531

                 SPIN DOWN ORBITALS
  NO   OCC          E(Eh)            E(eV)
   0   1.0000      -4.684111      -127.4611
   1   1.0000      -4.683882      -127.4549
   2   1.0000      -4.683882      -127.4549
   3   1.0000      -4.646239      -126.4306
   4   1.0000      -2.865312       -77.9691
   5   1.0000      -2.860633       -77.8418
   6   1.0000      -2.860631       -77.8417
   7   1.0000      -2.855552       -77.7035
   8   1.0000      -2.855552       -77.7035
   9   1.0000      -2.854505       -77.6750
  10   1.0000      -2.854084       -77.6636
  11   1.0000      -2.854064       -77.6630
  12   1.0000      -2.854063       -77.6630
  13   1.0000      -2.822430       -76.8022
  14   1.0000      -2.816964       -76.6535
  15   1.0000      -2.816962       -76.6534
  16   1.0000      -0.965100       -26.2617
  17   1.0000      -0.899518       -24.4771
  18   1.0000      -0.866799       -23.5868
  19   1.0000      -0.866796       -23.5867
  20   1.0000      -0.844361       -22.9762
  21   1.0000      -0.844357       -22.9761
  22   1.0000      -0.836848       -22.7718
  23   1.0000      -0.821759       -22.3612
  24   1.0000      -0.821758       -22.3612
  25   1.0000      -0.804910       -21.9027
  26   1.0000      -0.797394       -21.6982
  27   1.0000      -0.797388       -21.6980
  28   1.0000      -0.795080       -21.6352
  29   1.0000      -0.791283       -21.5319
  30   1.0000      -0.791272       -21.5316
  31   1.0000      -0.767530       -20.8856
  32   1.0000      -0.767523       -20.8854
  33   1.0000      -0.761160       -20.7122
  34   1.0000      -0.761052       -20.7093
  35   1.0000      -0.744365       -20.2552
  36   1.0000      -0.744357       -20.2550
  37   0.0000      -0.439452       -11.9581
  38   0.0000      -0.416601       -11.3363
  39   0.0000      -0.416600       -11.3363
  40   0.0000      -0.330427        -8.9914
  41   0.0000      -0.287986        -7.8365

MULLIKEN ATOMIC CHARGES AND SPIN POPULATIONS
--------------------------------------------
   0 Au:    0.508354    0.095576
   1 Au:    0.508668    0.095517
   2 Au:    0.508674    0.095515
   3 Au:    0.333919    0.469195
   4 H :    0.140386    0.244196
Sum of atomic charges         :    2.0000000

LOEWDIN ATOMIC CHARGES AND SPIN POPULATIONS
-------------------------------------------
   0 Au:    0.551423    0.195639
   1 Au:    0.551446    0.195632
   2 Au:    0.551446    0.195632
   3 Au:    0.463499    0.269948
   4 H :   -0.117814    0.143148

  Mayer bond orders larger than 0.100000
B(  0-Au,  1-Au) :   0.4035 B(  0-Au,  2-Au) :   0.4035 B(  0-Au,  3-Au) :   0.3831
B(  0-Au,  4-H ) :   0.2933 B(  1-Au,  2-Au) :   0.4033 B(  1-Au,  3-Au) :   0.3830
B(  1-Au,  4-H ) :   0.2933 B(  2-Au,  3-Au) :   0.3830 B(  2-Au,  4-H ) :   0.2933

FINAL SINGLE POINT ENERGY      -542.503876061668

DIPOLE MOMENT
-------------
                                X             Y             Z
Electronic contribution:     -0.00000      -0.00007       2.45031
Nuclear contribution   :      0.00000       0.00000      -2.84605
                        -----------------------------------------
Total Dipole Moment    :     -0.00000      -0.00007      -0.39574
                        -----------------------------------------
Magnitude (a.u.)       :      0.39574
Magnitude (Debye)      :      1.00589

Rotational constants in cm-1:     0.011617     0.011195     0.011195
Rotational constants in MHz :   348.279987   335.605170   335.605004

                             ****ORCA TERMINATED NORMALLY****
TOTAL RUN TIME: 0 days 0 hours 0 minutes 37 seconds 984 msec
