                         Program Version 4.2.0 -  RELEASE  -
|  1> #
|  2> # Cu01N0_F wB97M-V/Def2-TZVPPD
|  3> #
|  4> ! wb97m-v def2-tzvppd def2/jk grid4 nofinalgrid
|  5>
|  6> *xyz 0 1
|  7> Cu       0.000000    0.000000    0.412716
|  8> F        0.000000    0.000000   -1.329863
|  9> *
| 10>
| 11> %maxcore 5000
| 12>
| 13> %pal
| 14> nprocs = 24
| 15> end
| 16>
| 17>
| 18>                          ****END OF INPUT****

CARTESIAN COORDINATES (ANGSTROEM)
---------------------------------
  Cu     0.000000    0.000000    0.412716
  F      0.000000    0.000000   -1.329863

 Total Charge           Charge          ....    0
 Multiplicity           Mult            ....    1
 Number of Electrons    NEL             ....   38
 Basis Dimension        Dim             ....  107

ORBITAL ENERGIES
----------------

  NO   OCC          E(Eh)            E(eV)
   0   2.0000    -323.578436     -8805.0169
   1   2.0000     -39.090230     -1063.6992
   2   2.0000     -34.191747      -930.4047
   3   2.0000     -34.191747      -930.4047
   4   2.0000     -34.189855      -930.3532
   5   2.0000     -24.796233      -674.7398
   6   2.0000      -4.483483      -122.0018
   7   2.0000      -2.950390       -80.2842
   8   2.0000      -2.946031       -80.1656
   9   2.0000      -2.946031       -80.1656
  10   2.0000      -1.187190       -32.3051
  11   2.0000      -0.497119       -13.5273
  12   2.0000      -0.465397       -12.6641
  13   2.0000      -0.465397       -12.6641
  14   2.0000      -0.415041       -11.2938
  15   2.0000      -0.415040       -11.2938
  16   2.0000      -0.385663       -10.4944
  17   2.0000      -0.385663       -10.4944
  18   2.0000      -0.372011       -10.1229
  19   0.0000      -0.053590        -1.4583
  20   0.0000       0.027408         0.7458
  21   0.0000       0.027408         0.7458
  22   0.0000       0.057235         1.5574
  23   0.0000       0.100419         2.7326

MULLIKEN ATOMIC CHARGES
-----------------------
   0 Cu:    0.702995
   1 F :   -0.702995
Sum of atomic charges:   -0.0000000

LOEWDIN ATOMIC CHARGES
----------------------
   0 Cu:    0.556575
   1 F :   -0.556575

  Mayer bond orders larger than 0.100000
B(  0-Cu,  1-F ) :   0.6370

FINAL SINGLE POINT ENERGY     -1740.297666478250

DIPOLE MOMENT
-------------
                                X             Y             Z
Electronic contribution:     -0.00000       0.00000       2.93635
Nuclear contribution   :      0.00000       0.00000      -0.83805
                        -----------------------------------------
Total Dipole Moment    :     -0.00000       0.00000       2.09830
                        -----------------------------------------
Magnitude (a.u.)       :      2.09830
Magnitude (Debye)      :      5.33346

Rotational constants in cm-1:     0.000000     0.379573     0.379573
Rotational constants in MHz :     0.000000 11379.305818 11379.305818

                             ****ORCA TERMINATED NORMALLY****
TOTAL RUN TIME: 0 days 0 hours 0 minutes 5 seconds 695 msec
