                         Program Version 4.2.0 -  RELEASE  -
|  1> #
|  2> # Cu01N0_H wB97M-V/Def2-TZVPPD
|  3> #
|  4> ! wb97m-v def2-tzvppd def2/jk grid4 nofinalgrid
|  5>
|  6> *xyz 0 1
|  7> Cu       0.000000    0.000000    0.048513
|  8> H        0.000000    0.000000   -1.406870
|  9> *
| 10>
| 11> %maxcore 5000
| 12>
| 13> %pal
| 14> nprocs = 24
| 15> end
| 16>
| 17>
| 18>                          ****END OF INPUT****

CARTESIAN COORDINATES (ANGSTROEM)
---------------------------------
  Cu     0.000000    0.000000    0.048513
  H      0.000000    0.000000   -1.406870

 Total Charge           Charge          ....    0
 Multiplicity           Mult            ....    1
 Number of Electrons    NEL             ....   30
 Basis Dimension        Dim             ....   84

ORBITAL ENERGIES
----------------

  NO   OCC          E(Eh)            E(eV)
   0   2.0000    -323.558416     -8804.4721
   1   2.0000     -39.072772     -1063.2242
   2   2.0000     -34.174402      -929.9328
   3   2.0000     -34.172982      -929.8941
   4   2.0000     -34.172982      -929.8941
   5   2.0000      -4.460235      -121.3692
   6   2.0000      -2.929077       -79.7042
   7   2.0000      -2.920935       -79.4827
   8   2.0000      -2.920935       -79.4827
   9   2.0000      -0.439378       -11.9561
  10   2.0000      -0.396536       -10.7903
  11   2.0000      -0.396536       -10.7903
  12   2.0000      -0.388558       -10.5732
  13   2.0000      -0.388558       -10.5732
  14   2.0000      -0.331842        -9.0299
  15   0.0000      -0.021574        -0.5871
  16   0.0000       0.028877         0.7858
  17   0.0000       0.028877         0.7858
  18   0.0000       0.088678         2.4130
  19   0.0000       0.106027         2.8852

MULLIKEN ATOMIC CHARGES
-----------------------
   0 Cu:   -0.273067
   1 H :    0.273067
Sum of atomic charges:   -0.0000000

LOEWDIN ATOMIC CHARGES
----------------------
   0 Cu:    0.254737
   1 H :   -0.254737

  Mayer bond orders larger than 0.100000
B(  0-Cu,  1-H ) :   0.9105

FINAL SINGLE POINT ENERGY     -1640.991835916392

DIPOLE MOMENT
-------------
                                X             Y             Z
Electronic contribution:      0.00000      -0.00000       2.65208
Nuclear contribution   :      0.00000       0.00000      -1.46200
                        -----------------------------------------
Total Dipole Moment    :      0.00000      -0.00000       1.19008
                        -----------------------------------------
Magnitude (a.u.)       :      1.19008
Magnitude (Debye)      :      3.02494

Rotational constants in cm-1:     0.000000     8.020774     8.020774
Rotational constants in MHz :     0.000000 240456.758928 240456.758928

                             ****ORCA TERMINATED NORMALLY****
TOTAL RUN TIME: 0 days 0 hours 0 minutes 4 seconds 721 msec
