                         Program Version 4.2.0 -  RELEASE  -
|  1> #
|  2> # Cu02N0 wB97M-V/Def2-TZVPPD
|  3> #
|  4> ! wb97m-v def2-tzvppd def2/jk grid4 nofinalgrid
|  5>
|  6> *xyz 0 1
|  7> Cu       0.000000    0.000000    1.107490
|  8> Cu       0.000000    0.000000   -1.107490
|  9> *
| 10>
| 11> %maxcore 5000
| 12>
| 13> %pal
| 14> nprocs = 24
| 15> end
| 16>
| 17>
| 18>                          ****END OF INPUT****

CARTESIAN COORDINATES (ANGSTROEM)
---------------------------------
  Cu     0.000000    0.000000    1.107490
  Cu     0.000000    0.000000   -1.107490

 Total Charge           Charge          ....    0
 Multiplicity           Mult            ....    1
 Number of Electrons    NEL             ....   58
 Basis Dimension        Dim             ....  134

ORBITAL ENERGIES
----------------

  NO   OCC          E(Eh)            E(eV)
   0   2.0000    -323.524275     -8803.5431
   1   2.0000    -323.524267     -8803.5429
   2   2.0000     -39.036020     -1062.2241
   3   2.0000     -39.035988     -1062.2232
   4   2.0000     -34.137145      -928.9189
   5   2.0000     -34.137138      -928.9187
   6   2.0000     -34.136834      -928.9105
   7   2.0000     -34.136834      -928.9105
   8   2.0000     -34.136827      -928.9103
   9   2.0000     -34.136827      -928.9103
  10   2.0000      -4.425767      -120.4312
  11   2.0000      -4.425124      -120.4137
  12   2.0000      -2.894702       -78.7689
  13   2.0000      -2.889168       -78.6183
  14   2.0000      -2.888369       -78.5965
  15   2.0000      -2.888369       -78.5965
  16   2.0000      -2.887934       -78.5847
  17   2.0000      -2.887934       -78.5847
  18   2.0000      -0.394220       -10.7273
  19   2.0000      -0.381401       -10.3785
  20   2.0000      -0.381401       -10.3785
  21   2.0000      -0.362338        -9.8597
  22   2.0000      -0.362329        -9.8595
  23   2.0000      -0.354051        -9.6342
  24   2.0000      -0.354042        -9.6340
  25   2.0000      -0.342820        -9.3286
  26   2.0000      -0.342820        -9.3286
  27   2.0000      -0.338783        -9.2187
  28   2.0000      -0.280320        -7.6279
  29   0.0000      -0.024032        -0.6539
  30   0.0000       0.022355         0.6083
  31   0.0000       0.022355         0.6083
  32   0.0000       0.037750         1.0272
  33   0.0000       0.067741         1.8433

MULLIKEN ATOMIC CHARGES
-----------------------
   0 Cu:   -0.000000
   1 Cu:    0.000000
Sum of atomic charges:   -0.0000000

LOEWDIN ATOMIC CHARGES
----------------------
   0 Cu:   -0.000000
   1 Cu:    0.000000

  Mayer bond orders larger than 0.100000
B(  0-Cu,  1-Cu) :   1.0577

FINAL SINGLE POINT ENERGY     -3280.859140590770

DIPOLE MOMENT
-------------
                                X             Y             Z
Electronic contribution:     -0.00000      -0.00000       0.00000
Nuclear contribution   :      0.00000       0.00000       0.00000
                        -----------------------------------------
Total Dipole Moment    :     -0.00000      -0.00000       0.00000
                        -----------------------------------------
Magnitude (a.u.)       :      0.00000
Magnitude (Debye)      :      0.00000

Rotational constants in cm-1:     0.000000     0.108136     0.108136
Rotational constants in MHz :     0.000000  3241.846344  3241.846344

                             ****ORCA TERMINATED NORMALLY****
TOTAL RUN TIME: 0 days 0 hours 0 minutes 5 seconds 885 msec
