                         Program Version 4.2.0 -  RELEASE  -
|  1> #
|  2> # Cu03C1_D3H wB97M-V/Def2-TZVPPD
|  3> #
|  4> ! wb97m-v def2-tzvppd def2/jk grid4 nofinalgrid
|  5>
|  6> *xyz 1 1
|  7> Cu       0.000000    1.349261   -0.000000
|  8> Cu       1.168494   -0.674630    0.000000
|  9> Cu      -1.168494   -0.674630   -0.000000
| 10> *
| 11>
| 12> %maxcore 5000
| 13>
| 14> %pal
| 15> nprocs = 24
| 16> end
| 17>
| 18>
| 19>                          ****END OF INPUT****

CARTESIAN COORDINATES (ANGSTROEM)
---------------------------------
  Cu     0.000000    1.349261   -0.000000
  Cu     1.168494   -0.674630    0.000000
  Cu    -1.168494   -0.674630   -0.000000

 Total Charge           Charge          ....    1
 Multiplicity           Mult            ....    1
 Number of Electrons    NEL             ....   86
 Basis Dimension        Dim             ....  201

ORBITAL ENERGIES
----------------

  NO   OCC          E(Eh)            E(eV)
   0   2.0000    -323.745749     -8809.5697
   1   2.0000    -323.745746     -8809.5696
   2   2.0000    -323.745739     -8809.5694
   3   2.0000     -39.256294     -1068.2181
   4   2.0000     -39.256291     -1068.2180
   5   2.0000     -39.256257     -1068.2171
   6   2.0000     -34.358083      -934.9310
   7   2.0000     -34.358067      -934.9305
   8   2.0000     -34.358064      -934.9304
   9   2.0000     -34.357338      -934.9107
  10   2.0000     -34.357335      -934.9106
  11   2.0000     -34.357323      -934.9103
  12   2.0000     -34.356654      -934.8921
  13   2.0000     -34.356652      -934.8920
  14   2.0000     -34.356644      -934.8918
  15   2.0000      -4.646880      -126.4480
  16   2.0000      -4.646399      -126.4350
  17   2.0000      -4.646395      -126.4348
  18   2.0000      -3.114829       -84.7588
  19   2.0000      -3.112802       -84.7037
  20   2.0000      -3.112802       -84.7036
  21   2.0000      -3.110573       -84.6430
  22   2.0000      -3.110346       -84.6368
  23   2.0000      -3.110340       -84.6367
  24   2.0000      -3.108479       -84.5860
  25   2.0000      -3.108139       -84.5768
  26   2.0000      -3.108133       -84.5766
  27   2.0000      -0.627666       -17.0797
  28   2.0000      -0.607852       -16.5405
  29   2.0000      -0.607842       -16.5402
  30   2.0000      -0.606870       -16.5138
  31   2.0000      -0.593911       -16.1611
  32   2.0000      -0.589820       -16.0498
  33   2.0000      -0.589796       -16.0492
  34   2.0000      -0.571082       -15.5399
  35   2.0000      -0.571079       -15.5398
  36   2.0000      -0.567890       -15.4531
  37   2.0000      -0.566104       -15.4045
  38   2.0000      -0.566057       -15.4032
  39   2.0000      -0.564682       -15.3658
  40   2.0000      -0.564637       -15.3645
  41   2.0000      -0.547527       -14.8990
  42   2.0000      -0.522562       -14.2196
  43   0.0000      -0.205160        -5.5827
  44   0.0000      -0.205157        -5.5826
  45   0.0000      -0.155705        -4.2369
  46   0.0000      -0.126192        -3.4339
  47   0.0000      -0.102482        -2.7887

MULLIKEN ATOMIC CHARGES
-----------------------
   0 Cu:    0.333330
   1 Cu:    0.333337
   2 Cu:    0.333333
Sum of atomic charges:    1.0000000

LOEWDIN ATOMIC CHARGES
----------------------
   0 Cu:    0.333343
   1 Cu:    0.333329
   2 Cu:    0.333329

  Mayer bond orders larger than 0.100000
B(  0-Cu,  1-Cu) :   0.5242 B(  0-Cu,  2-Cu) :   0.5242 B(  1-Cu,  2-Cu) :   0.5241

FINAL SINGLE POINT ENERGY     -4921.092243176223

DIPOLE MOMENT
-------------
                                X             Y             Z
Electronic contribution:      0.00000       0.00006      -0.00000
Nuclear contribution   :      0.00000       0.00000       0.00000
                        -----------------------------------------
Total Dipole Moment    :      0.00000       0.00006      -0.00000
                        -----------------------------------------
Magnitude (a.u.)       :      0.00006
Magnitude (Debye)      :      0.00016

Rotational constants in cm-1:     0.097140     0.097140     0.048570
Rotational constants in MHz :  2912.185801  2912.185732  1456.092883

                             ****ORCA TERMINATED NORMALLY****
TOTAL RUN TIME: 0 days 0 hours 0 minutes 11 seconds 878 msec
