                         Program Version 4.2.0 -  RELEASE  -
|  1> #
|  2> # Cu03N0_D3H wB97M-V/Def2-TZVPPD
|  3> #
|  4> ! wb97m-v def2-tzvppd def2/jk grid4 nofinalgrid
|  5>
|  6> *xyz 0 2
|  7> Cu       0.000000    1.346828   -0.000000
|  8> Cu       1.166387   -0.673414   -0.000000
|  9> Cu      -1.166387   -0.673414   -0.000000
| 10> *
| 11>
| 12> %maxcore 5000
| 13>
| 14> %pal
| 15> nprocs = 24
| 16> end
| 17>
| 18>
| 19>                          ****END OF INPUT****

CARTESIAN COORDINATES (ANGSTROEM)
---------------------------------
  Cu     0.000000    1.346828   -0.000000
  Cu     1.166387   -0.673414   -0.000000
  Cu    -1.166387   -0.673414   -0.000000

 Total Charge           Charge          ....    0
 Multiplicity           Mult            ....    2
 Number of Electrons    NEL             ....   87
 Basis Dimension        Dim             ....  201

ORBITAL ENERGIES
----------------
                 SPIN UP ORBITALS
  NO   OCC          E(Eh)            E(eV)
   0   1.0000    -323.551038     -8804.2714
   1   1.0000    -323.551033     -8804.2712
   2   1.0000    -323.536106     -8803.8650
   3   1.0000     -39.063271     -1062.9656
   4   1.0000     -39.063247     -1062.9650
   5   1.0000     -39.051128     -1062.6352
   6   1.0000     -34.164652      -929.6674
   7   1.0000     -34.164646      -929.6673
   8   1.0000     -34.164095      -929.6523
   9   1.0000     -34.164083      -929.6520
  10   1.0000     -34.163748      -929.6428
  11   1.0000     -34.163742      -929.6427
  12   1.0000     -34.152485      -929.3364
  13   1.0000     -34.152011      -929.3235
  14   1.0000     -34.150389      -929.2793
  15   1.0000      -4.452874      -121.1689
  16   1.0000      -4.452541      -121.1598
  17   1.0000      -4.438472      -120.7770
  18   1.0000      -2.920592       -79.4734
  19   1.0000      -2.917667       -79.3938
  20   1.0000      -2.916404       -79.3594
  21   1.0000      -2.915626       -79.3382
  22   1.0000      -2.914968       -79.3203
  23   1.0000      -2.914733       -79.3139
  24   1.0000      -2.903479       -79.0077
  25   1.0000      -2.902466       -78.9801
  26   1.0000      -2.898848       -78.8817
  27   1.0000      -0.433542       -11.7973
  28   1.0000      -0.412945       -11.2368
  29   1.0000      -0.410251       -11.1635
  30   1.0000      -0.406590       -11.0639
  31   1.0000      -0.396683       -10.7943
  32   1.0000      -0.394089       -10.7237
  33   1.0000      -0.389256       -10.5922
  34   1.0000      -0.375942       -10.2299
  35   1.0000      -0.372245       -10.1293
  36   1.0000      -0.371757       -10.1160
  37   1.0000      -0.365016        -9.9326
  38   1.0000      -0.362958        -9.8766
  39   1.0000      -0.362818        -9.8728
  40   1.0000      -0.359697        -9.7878
  41   1.0000      -0.348089        -9.4720
  42   1.0000      -0.343008        -9.3337
  43   1.0000      -0.199942        -5.4407
  44   0.0000      -0.041403        -1.1266
  45   0.0000       0.004624         0.1258
  46   0.0000       0.020221         0.5502
  47   0.0000       0.040769         1.1094
  48   0.0000       0.045205         1.2301

                 SPIN DOWN ORBITALS
  NO   OCC          E(Eh)            E(eV)
   0   1.0000    -323.550792     -8804.2646
   1   1.0000    -323.550786     -8804.2645
   2   1.0000    -323.535455     -8803.8473
   3   1.0000     -39.062857     -1062.9544
   4   1.0000     -39.062833     -1062.9537
   5   1.0000     -39.050061     -1062.6062
   6   1.0000     -34.164030      -929.6505
   7   1.0000     -34.164020      -929.6503
   8   1.0000     -34.163717      -929.6420
   9   1.0000     -34.163708      -929.6418
  10   1.0000     -34.163579      -929.6383
  11   1.0000     -34.163573      -929.6381
  12   1.0000     -34.151420      -929.3074
  13   1.0000     -34.151214      -929.3018
  14   1.0000     -34.149869      -929.2652
  15   1.0000      -4.451983      -121.1446
  16   1.0000      -4.451651      -121.1356
  17   1.0000      -4.436154      -120.7139
  18   1.0000      -2.919548       -79.4449
  19   1.0000      -2.916827       -79.3709
  20   1.0000      -2.915270       -79.3285
  21   1.0000      -2.914389       -79.3046
  22   1.0000      -2.914364       -79.3039
  23   1.0000      -2.914167       -79.2985
  24   1.0000      -2.901622       -78.9572
  25   1.0000      -2.900087       -78.9154
  26   1.0000      -2.896800       -78.8259
  27   1.0000      -0.429855       -11.6970
  28   1.0000      -0.410283       -11.1644
  29   1.0000      -0.409133       -11.1331
  30   1.0000      -0.403148       -10.9702
  31   1.0000      -0.393704       -10.7132
  32   1.0000      -0.392498       -10.6804
  33   1.0000      -0.387848       -10.5539
  34   1.0000      -0.374490       -10.1904
  35   1.0000      -0.371555       -10.1105
  36   1.0000      -0.371085       -10.0977
  37   1.0000      -0.362297        -9.8586
  38   1.0000      -0.360580        -9.8119
  39   1.0000      -0.357947        -9.7402
  40   1.0000      -0.357289        -9.7223
  41   1.0000      -0.343866        -9.3571
  42   1.0000      -0.328688        -8.9440
  43   0.0000      -0.080502        -2.1906
  44   0.0000      -0.060533        -1.6472
  45   0.0000      -0.046194        -1.2570
  46   0.0000      -0.016380        -0.4457
  47   0.0000      -0.008331        -0.2267

MULLIKEN ATOMIC CHARGES AND SPIN POPULATIONS
--------------------------------------------
   0 Cu:   -0.081495    0.544424
   1 Cu:    0.040756    0.227774
   2 Cu:    0.040739    0.227801
Sum of atomic charges         :    0.0000000

LOEWDIN ATOMIC CHARGES AND SPIN POPULATIONS
-------------------------------------------
   0 Cu:   -0.018569    0.388351
   1 Cu:    0.009285    0.305823
   2 Cu:    0.009284    0.305826

  Mayer bond orders larger than 0.100000
B(  0-Cu,  1-Cu) :   0.4903 B(  0-Cu,  2-Cu) :   0.4903 B(  1-Cu,  2-Cu) :   0.7762

FINAL SINGLE POINT ENERGY     -4921.281702273110

DIPOLE MOMENT
-------------
                                X             Y             Z
Electronic contribution:      0.00001      -0.31125      -0.00000
Nuclear contribution   :      0.00000       0.00000      -0.00000
                        -----------------------------------------
Total Dipole Moment    :      0.00001      -0.31125      -0.00000
                        -----------------------------------------
Magnitude (a.u.)       :      0.31125
Magnitude (Debye)      :      0.79114

Rotational constants in cm-1:     0.097491     0.097491     0.048746
Rotational constants in MHz :  2922.716641  2922.715325  1461.357991

                             ****ORCA TERMINATED NORMALLY****
TOTAL RUN TIME: 0 days 0 hours 0 minutes 15 seconds 692 msec
