                         Program Version 4.2.0 -  RELEASE  -
|  1> #
|  2> # Cu03C1_LIN wB97M-V/Def2-TZVPPD
|  3> #
|  4> ! wb97m-v def2-tzvppd def2/jk grid4 nofinalgrid
|  5>
|  6> *xyz 1 1
|  7> Cu       0.000000    0.000000    0.000000
|  8> Cu       0.000000    0.000000    2.337165
|  9> Cu       0.000000    0.000000   -2.337165
| 10> *
| 11>
| 12> %maxcore 5000
| 13>
| 14> %pal
| 15> nprocs = 24
| 16> end
| 17>
| 18>
| 19>                          ****END OF INPUT****

CARTESIAN COORDINATES (ANGSTROEM)
---------------------------------
  Cu     0.000000    0.000000    0.000000
  Cu     0.000000    0.000000    2.337165
  Cu     0.000000    0.000000   -2.337165

 Total Charge           Charge          ....    1
 Multiplicity           Mult            ....    1
 Number of Electrons    NEL             ....   86
 Basis Dimension        Dim             ....  201

ORBITAL ENERGIES
----------------

  NO   OCC          E(Eh)            E(eV)
   0   2.0000    -323.751476     -8809.7255
   1   2.0000    -323.751473     -8809.7255
   2   2.0000    -323.704421     -8808.4451
   3   2.0000     -39.256994     -1068.2371
   4   2.0000     -39.256980     -1068.2367
   5   2.0000     -39.217710     -1067.1681
   6   2.0000     -34.358970      -934.9551
   7   2.0000     -34.358967      -934.9550
   8   2.0000     -34.358386      -934.9392
   9   2.0000     -34.358386      -934.9392
  10   2.0000     -34.358383      -934.9391
  11   2.0000     -34.358383      -934.9391
  12   2.0000     -34.319518      -933.8816
  13   2.0000     -34.317915      -933.8379
  14   2.0000     -34.317915      -933.8379
  15   2.0000      -4.650549      -126.5479
  16   2.0000      -4.650536      -126.5475
  17   2.0000      -4.605813      -125.3305
  18   2.0000      -3.117209       -84.8236
  19   2.0000      -3.117089       -84.8203
  20   2.0000      -3.114877       -84.7601
  21   2.0000      -3.114877       -84.7601
  22   2.0000      -3.114863       -84.7597
  23   2.0000      -3.114863       -84.7597
  24   2.0000      -3.074447       -83.6600
  25   2.0000      -3.066954       -83.4561
  26   2.0000      -3.066954       -83.4561
  27   2.0000      -0.614208       -16.7135
  28   2.0000      -0.596415       -16.2293
  29   2.0000      -0.596415       -16.2293
  30   2.0000      -0.590747       -16.0750
  31   2.0000      -0.589397       -16.0383
  32   2.0000      -0.589397       -16.0383
  33   2.0000      -0.586159       -15.9502
  34   2.0000      -0.586148       -15.9499
  35   2.0000      -0.585776       -15.9398
  36   2.0000      -0.585764       -15.9395
  37   2.0000      -0.535141       -14.5619
  38   2.0000      -0.535125       -14.5615
  39   2.0000      -0.534326       -14.5398
  40   2.0000      -0.534326       -14.5398
  41   2.0000      -0.533183       -14.5086
  42   2.0000      -0.467842       -12.7306
  43   0.0000      -0.261612        -7.1188
  44   0.0000      -0.162656        -4.4261
  45   0.0000      -0.139399        -3.7932
  46   0.0000      -0.139399        -3.7932
  47   0.0000      -0.106386        -2.8949

MULLIKEN ATOMIC CHARGES
-----------------------
   0 Cu:   -0.284793
   1 Cu:    0.642384
   2 Cu:    0.642409
Sum of atomic charges:    1.0000000

LOEWDIN ATOMIC CHARGES
----------------------
   0 Cu:    0.146788
   1 Cu:    0.426606
   2 Cu:    0.426606

  Mayer bond orders larger than 0.100000
B(  0-Cu,  1-Cu) :   0.4932 B(  0-Cu,  2-Cu) :   0.4932 B(  1-Cu,  2-Cu) :   0.1612

FINAL SINGLE POINT ENERGY     -4921.025236311512

DIPOLE MOMENT
-------------
                                X             Y             Z
Electronic contribution:      0.00000       0.00000      -0.00000
Nuclear contribution   :      0.00000       0.00000       0.00000
                        -----------------------------------------
Total Dipole Moment    :      0.00000       0.00000      -0.00000
                        -----------------------------------------
Magnitude (a.u.)       :      0.00000
Magnitude (Debye)      :      0.00000

Rotational constants in cm-1:     0.000000     0.024281     0.024281
Rotational constants in MHz :     0.000000   727.936180   727.936180

                             ****ORCA TERMINATED NORMALLY****
TOTAL RUN TIME: 0 days 0 hours 0 minutes 13 seconds 386 msec
