                         Program Version 4.2.0 -  RELEASE  -
|  1> #
|  2> # Cu03N0_LIN wB97M-V/Def2-TZVPPD
|  3> #
|  4> ! wb97m-v def2-tzvppd def2/jk grid4 nofinalgrid
|  5>
|  6> *xyz 0 2
|  7> Cu       0.000000    0.000000    0.000000
|  8> Cu       0.000000    0.000000    2.291099
|  9> Cu       0.000000    0.000000   -2.291099
| 10> *
| 11>
| 12> %maxcore 5000
| 13>
| 14> %pal
| 15> nprocs = 24
| 16> end
| 17>
| 18>
| 19>                          ****END OF INPUT****

CARTESIAN COORDINATES (ANGSTROEM)
---------------------------------
  Cu     0.000000    0.000000    0.000000
  Cu     0.000000    0.000000    2.291099
  Cu     0.000000    0.000000   -2.291099

 Total Charge           Charge          ....    0
 Multiplicity           Mult            ....    2
 Number of Electrons    NEL             ....   87
 Basis Dimension        Dim             ....  201

ORBITAL ENERGIES
----------------
                 SPIN UP ORBITALS
  NO   OCC          E(Eh)            E(eV)
   0   1.0000    -323.540476     -8803.9839
   1   1.0000    -323.540473     -8803.9838
   2   1.0000    -323.522738     -8803.5013
   3   1.0000     -39.051157     -1062.6360
   4   1.0000     -39.051141     -1062.6356
   5   1.0000     -39.036358     -1062.2333
   6   1.0000     -34.152544      -929.3380
   7   1.0000     -34.152541      -929.3379
   8   1.0000     -34.151878      -929.3199
   9   1.0000     -34.151878      -929.3199
  10   1.0000     -34.151876      -929.3198
  11   1.0000     -34.151876      -929.3198
  12   1.0000     -34.137868      -928.9386
  13   1.0000     -34.136932      -928.9132
  14   1.0000     -34.136932      -928.9132
  15   1.0000      -4.441134      -120.8494
  16   1.0000      -4.441124      -120.8491
  17   1.0000      -4.424086      -120.3855
  18   1.0000      -2.907835       -79.1262
  19   1.0000      -2.907329       -79.1124
  20   1.0000      -2.903840       -79.0175
  21   1.0000      -2.903840       -79.0175
  22   1.0000      -2.903835       -79.0174
  23   1.0000      -2.903835       -79.0174
  24   1.0000      -2.890871       -78.6646
  25   1.0000      -2.885989       -78.5318
  26   1.0000      -2.885989       -78.5318
  27   1.0000      -0.416715       -11.3394
  28   1.0000      -0.394746       -10.7416
  29   1.0000      -0.394746       -10.7416
  30   1.0000      -0.380076       -10.3424
  31   1.0000      -0.379713       -10.3325
  32   1.0000      -0.379713       -10.3325
  33   1.0000      -0.376003       -10.2316
  34   1.0000      -0.375993       -10.2313
  35   1.0000      -0.374793       -10.1986
  36   1.0000      -0.374783       -10.1984
  37   1.0000      -0.353813        -9.6277
  38   1.0000      -0.353798        -9.6273
  39   1.0000      -0.342743        -9.3265
  40   1.0000      -0.342743        -9.3265
  41   1.0000      -0.342125        -9.3097
  42   1.0000      -0.311983        -8.4895
  43   1.0000      -0.260879        -7.0989
  44   0.0000      -0.008207        -0.2233
  45   0.0000       0.011716         0.3188
  46   0.0000       0.011716         0.3188
  47   0.0000       0.025401         0.6912
  48   0.0000       0.046024         1.2524

                 SPIN DOWN ORBITALS
  NO   OCC          E(Eh)            E(eV)
   0   1.0000    -323.539715     -8803.9632
   1   1.0000    -323.539712     -8803.9631
   2   1.0000    -323.522662     -8803.4992
   3   1.0000     -39.050763     -1062.6253
   4   1.0000     -39.050747     -1062.6249
   5   1.0000     -39.037058     -1062.2523
   6   1.0000     -34.152483      -929.3363
   7   1.0000     -34.152480      -929.3362
   8   1.0000     -34.151546      -929.3108
   9   1.0000     -34.151546      -929.3108
  10   1.0000     -34.151543      -929.3107
  11   1.0000     -34.151543      -929.3107
  12   1.0000     -34.138174      -928.9469
  13   1.0000     -34.137312      -928.9235
  14   1.0000     -34.137312      -928.9235
  15   1.0000      -4.439804      -120.8132
  16   1.0000      -4.439797      -120.8130
  17   1.0000      -4.425163      -120.4148
  18   1.0000      -2.906638       -79.0936
  19   1.0000      -2.906111       -79.0793
  20   1.0000      -2.903035       -78.9956
  21   1.0000      -2.903035       -78.9956
  22   1.0000      -2.903020       -78.9952
  23   1.0000      -2.903020       -78.9952
  24   1.0000      -2.891326       -78.6770
  25   1.0000      -2.887234       -78.5656
  26   1.0000      -2.887234       -78.5656
  27   1.0000      -0.412157       -11.2154
  28   1.0000      -0.392142       -10.6707
  29   1.0000      -0.392142       -10.6707
  30   1.0000      -0.378518       -10.3000
  31   1.0000      -0.377085       -10.2610
  32   1.0000      -0.377085       -10.2610
  33   1.0000      -0.373811       -10.1719
  34   1.0000      -0.373802       -10.1717
  35   1.0000      -0.372418       -10.1340
  36   1.0000      -0.372408       -10.1337
  37   1.0000      -0.354702        -9.6519
  38   1.0000      -0.354688        -9.6515
  39   1.0000      -0.342994        -9.3333
  40   1.0000      -0.342994        -9.3333
  41   1.0000      -0.338109        -9.2004
  42   1.0000      -0.280564        -7.6345
  43   0.0000      -0.087923        -2.3925
  44   0.0000      -0.031693        -0.8624
  45   0.0000      -0.001706        -0.0464
  46   0.0000      -0.001706        -0.0464
  47   0.0000       0.001474         0.0401

MULLIKEN ATOMIC CHARGES AND SPIN POPULATIONS
--------------------------------------------
   0 Cu:   -0.246691   -0.133448
   1 Cu:    0.123330    0.566732
   2 Cu:    0.123361    0.566716
Sum of atomic charges         :    0.0000000

LOEWDIN ATOMIC CHARGES AND SPIN POPULATIONS
-------------------------------------------
   0 Cu:   -0.256408    0.407197
   1 Cu:    0.128204    0.296402
   2 Cu:    0.128204    0.296402

  Mayer bond orders larger than 0.100000
B(  0-Cu,  1-Cu) :   0.5620 B(  0-Cu,  2-Cu) :   0.5620

FINAL SINGLE POINT ENERGY     -4921.279735992253

DIPOLE MOMENT
-------------
                                X             Y             Z
Electronic contribution:     -0.00000       0.00000       0.00000
Nuclear contribution   :      0.00000       0.00000       0.00000
                        -----------------------------------------
Total Dipole Moment    :     -0.00000       0.00000       0.00000
                        -----------------------------------------
Magnitude (a.u.)       :      0.00000
Magnitude (Debye)      :      0.00000

Rotational constants in cm-1:     0.000000     0.025268     0.025268
Rotational constants in MHz :     0.000000   757.502973   757.502973

                             ****ORCA TERMINATED NORMALLY****
TOTAL RUN TIME: 0 days 0 hours 0 minutes 14 seconds 224 msec
