                         Program Version 4.2.0 -  RELEASE  -
|  1> #
|  2> # Cu04C2_H_A wB97M-V/Def2-TZVPPD
|  3> #
|  4> ! wb97m-v def2-tzvppd def2/jk grid4 nofinalgrid
|  5>
|  6> *xyz 2 2
|  7> Cu      -0.000000    1.401870   -0.545062
|  8> Cu       1.214055   -0.700935   -0.545062
|  9> Cu      -1.214055   -0.700935   -0.545062
| 10> Cu       0.000000    0.000000    1.530006
| 11> H        0.000000    0.000000    3.050192
| 12> *
| 13>
| 14> %maxcore 5000
| 15>
| 16> %pal
| 17> nprocs = 24
| 18> end
| 19>
| 20>
| 21>                          ****END OF INPUT****

CARTESIAN COORDINATES (ANGSTROEM)
---------------------------------
  Cu    -0.000000    1.401870   -0.545062
  Cu     1.214055   -0.700935   -0.545062
  Cu    -1.214055   -0.700935   -0.545062
  Cu     0.000000    0.000000    1.530006
  H      0.000000    0.000000    3.050192

 Total Charge           Charge          ....    2
 Multiplicity           Mult            ....    2
 Number of Electrons    NEL             ....  115
 Basis Dimension        Dim             ....  285

ORBITAL ENERGIES
----------------
                 SPIN UP ORBITALS
  NO   OCC          E(Eh)            E(eV)
   0   1.0000    -323.998181     -8816.4387
   1   1.0000    -323.957863     -8815.3416
   2   1.0000    -323.957859     -8815.3415
   3   1.0000    -323.957854     -8815.3414
   4   1.0000     -39.520295     -1075.4019
   5   1.0000     -39.467653     -1073.9694
   6   1.0000     -39.467650     -1073.9693
   7   1.0000     -39.467628     -1073.9688
   8   1.0000     -34.628272      -942.2832
   9   1.0000     -34.615621      -941.9389
  10   1.0000     -34.615617      -941.9388
  11   1.0000     -34.568985      -940.6699
  12   1.0000     -34.568982      -940.6698
  13   1.0000     -34.568977      -940.6697
  14   1.0000     -34.568742      -940.6633
  15   1.0000     -34.568728      -940.6629
  16   1.0000     -34.568724      -940.6628
  17   1.0000     -34.568694      -940.6620
  18   1.0000     -34.568691      -940.6619
  19   1.0000     -34.568678      -940.6615
  20   1.0000      -4.907544      -133.5411
  21   1.0000      -4.858056      -132.1944
  22   1.0000      -4.857763      -132.1865
  23   1.0000      -4.857760      -132.1864
  24   1.0000      -3.387250       -92.1718
  25   1.0000      -3.362163       -91.4891
  26   1.0000      -3.362151       -91.4888
  27   1.0000      -3.325005       -90.4780
  28   1.0000      -3.323155       -90.4276
  29   1.0000      -3.323151       -90.4275
  30   1.0000      -3.321616       -90.3858
  31   1.0000      -3.321582       -90.3848
  32   1.0000      -3.321574       -90.3846
  33   1.0000      -3.320865       -90.3653
  34   1.0000      -3.320863       -90.3653
  35   1.0000      -3.320617       -90.3586
  36   1.0000      -0.897912       -24.4334
  37   1.0000      -0.848576       -23.0909
  38   1.0000      -0.848540       -23.0899
  39   1.0000      -0.831489       -22.6260
  40   1.0000      -0.829316       -22.5668
  41   1.0000      -0.829315       -22.5668
  42   1.0000      -0.818901       -22.2834
  43   1.0000      -0.811272       -22.0758
  44   1.0000      -0.811265       -22.0756
  45   1.0000      -0.803288       -21.8586
  46   1.0000      -0.794983       -21.6326
  47   1.0000      -0.794973       -21.6323
  48   1.0000      -0.780998       -21.2520
  49   1.0000      -0.780837       -21.2476
  50   1.0000      -0.780835       -21.2476
  51   1.0000      -0.779461       -21.2102
  52   1.0000      -0.779438       -21.2096
  53   1.0000      -0.777815       -21.1654
  54   1.0000      -0.772343       -21.0165
  55   1.0000      -0.772339       -21.0164
  56   1.0000      -0.759493       -20.6669
  57   1.0000      -0.734741       -19.9933
  58   0.0000      -0.394446       -10.7334
  59   0.0000      -0.394442       -10.7333
  60   0.0000      -0.364452        -9.9172
  61   0.0000      -0.287759        -7.8303
  62   0.0000      -0.270404        -7.3581

                 SPIN DOWN ORBITALS
  NO   OCC          E(Eh)            E(eV)
   0   1.0000    -323.997367     -8816.4166
   1   1.0000    -323.957822     -8815.3405
   2   1.0000    -323.957818     -8815.3404
   3   1.0000    -323.957813     -8815.3403
   4   1.0000     -39.511883     -1075.1730
   5   1.0000     -39.467476     -1073.9646
   6   1.0000     -39.467473     -1073.9645
   7   1.0000     -39.467451     -1073.9639
   8   1.0000     -34.617973      -942.0029
   9   1.0000     -34.610648      -941.8036
  10   1.0000     -34.610647      -941.8036
  11   1.0000     -34.568756      -940.6637
  12   1.0000     -34.568753      -940.6636
  13   1.0000     -34.568747      -940.6634
  14   1.0000     -34.568712      -940.6625
  15   1.0000     -34.568698      -940.6621
  16   1.0000     -34.568694      -940.6620
  17   1.0000     -34.568524      -940.6574
  18   1.0000     -34.568521      -940.6573
  19   1.0000     -34.568507      -940.6569
  20   1.0000      -4.892449      -133.1303
  21   1.0000      -4.857724      -132.1854
  22   1.0000      -4.857431      -132.1774
  23   1.0000      -4.857428      -132.1773
  24   1.0000      -3.356107       -91.3243
  25   1.0000      -3.353556       -91.2549
  26   1.0000      -3.353550       -91.2547
  27   1.0000      -3.324379       -90.4609
  28   1.0000      -3.322699       -90.4152
  29   1.0000      -3.322697       -90.4152
  30   1.0000      -3.321387       -90.3795
  31   1.0000      -3.321377       -90.3793
  32   1.0000      -3.321238       -90.3755
  33   1.0000      -3.320550       -90.3568
  34   1.0000      -3.320485       -90.3550
  35   1.0000      -3.320482       -90.3549
  36   1.0000      -0.861212       -23.4348
  37   1.0000      -0.841877       -22.9086
  38   1.0000      -0.841843       -22.9077
  39   1.0000      -0.824793       -22.4438
  40   1.0000      -0.822136       -22.3715
  41   1.0000      -0.822134       -22.3714
  42   1.0000      -0.809863       -22.0375
  43   1.0000      -0.809860       -22.0374
  44   1.0000      -0.801675       -21.8147
  45   1.0000      -0.799665       -21.7600
  46   1.0000      -0.793451       -21.5909
  47   1.0000      -0.793443       -21.5907
  48   1.0000      -0.780834       -21.2476
  49   1.0000      -0.780384       -21.2353
  50   1.0000      -0.780381       -21.2353
  51   1.0000      -0.778738       -21.1905
  52   1.0000      -0.778718       -21.1900
  53   1.0000      -0.770109       -20.9557
  54   1.0000      -0.770099       -20.9555
  55   1.0000      -0.759412       -20.6646
  56   1.0000      -0.752824       -20.4854
  57   0.0000      -0.456589       -12.4244
  58   0.0000      -0.395143       -10.7524
  59   0.0000      -0.395139       -10.7523
  60   0.0000      -0.352708        -9.5977
  61   0.0000      -0.285100        -7.7580

MULLIKEN ATOMIC CHARGES AND SPIN POPULATIONS
--------------------------------------------
   0 Cu:    0.549333    0.005015
   1 Cu:    0.549368    0.005010
   2 Cu:    0.549385    0.005012
   3 Cu:   -0.159359    0.593089
   4 H :    0.511272    0.391874
Sum of atomic charges         :    2.0000000

LOEWDIN ATOMIC CHARGES AND SPIN POPULATIONS
-------------------------------------------
   0 Cu:    0.493664    0.034567
   1 Cu:    0.493657    0.034568
   2 Cu:    0.493657    0.034568
   3 Cu:    0.416275    0.499303
   4 H :    0.102748    0.396994

  Mayer bond orders larger than 0.100000
B(  0-Cu,  1-Cu) :   0.3353 B(  0-Cu,  2-Cu) :   0.3352 B(  0-Cu,  3-Cu) :   0.2526
B(  1-Cu,  2-Cu) :   0.3352 B(  1-Cu,  3-Cu) :   0.2526 B(  2-Cu,  3-Cu) :   0.2526
B(  3-Cu,  4-H ) :   0.1271

FINAL SINGLE POINT ENERGY     -6561.660364932689

DIPOLE MOMENT
-------------
                                X             Y             Z
Electronic contribution:      0.00000       0.00005      -3.39941
Nuclear contribution   :      0.00000       0.00000       3.12710
                        -----------------------------------------
Total Dipole Moment    :      0.00000       0.00005      -0.27231
                        -----------------------------------------
Magnitude (a.u.)       :      0.27231
Magnitude (Debye)      :      0.69216

Rotational constants in cm-1:     0.044993     0.041927     0.041927
Rotational constants in MHz :  1348.855174  1256.945404  1256.945373

                             ****ORCA TERMINATED NORMALLY****
TOTAL RUN TIME: 0 days 0 hours 0 minutes 36 seconds 937 msec
