                         Program Version 4.2.0 -  RELEASE  -
|  1> #
|  2> # Cu04C2_H_F wB97M-V/Def2-TZVPPD
|  3> #
|  4> ! wb97m-v def2-tzvppd def2/jk grid4 nofinalgrid
|  5>
|  6> *xyz 2 2
|  7> Cu      -0.000000    1.387730   -0.507533
|  8> Cu       1.201809   -0.693865   -0.507533
|  9> Cu      -1.201809   -0.693865   -0.507533
| 10> Cu       0.000000    0.000000    1.576640
| 11> H        0.000000    0.000000   -1.567185
| 12> *
| 13>
| 14> %maxcore 5000
| 15>
| 16> %pal
| 17> nprocs = 24
| 18> end
| 19>
| 20>
| 21>                          ****END OF INPUT****

CARTESIAN COORDINATES (ANGSTROEM)
---------------------------------
  Cu    -0.000000    1.387730   -0.507533
  Cu     1.201809   -0.693865   -0.507533
  Cu    -1.201809   -0.693865   -0.507533
  Cu     0.000000    0.000000    1.576640
  H      0.000000    0.000000   -1.567185

 Total Charge           Charge          ....    2
 Multiplicity           Mult            ....    2
 Number of Electrons    NEL             ....  115
 Basis Dimension        Dim             ....  285

ORBITAL ENERGIES
----------------
                 SPIN UP ORBITALS
  NO   OCC          E(Eh)            E(eV)
   0   1.0000    -323.974394     -8815.7914
   1   1.0000    -323.974391     -8815.7914
   2   1.0000    -323.974385     -8815.7912
   3   1.0000    -323.946335     -8815.0279
   4   1.0000     -39.486337     -1074.4779
   5   1.0000     -39.486335     -1074.4778
   6   1.0000     -39.486310     -1074.4771
   7   1.0000     -39.456449     -1073.6646
   8   1.0000     -34.587989      -941.1870
   9   1.0000     -34.587988      -941.1870
  10   1.0000     -34.587977      -941.1867
  11   1.0000     -34.587165      -941.1646
  12   1.0000     -34.587164      -941.1646
  13   1.0000     -34.587156      -941.1644
  14   1.0000     -34.586467      -941.1456
  15   1.0000     -34.586452      -941.1452
  16   1.0000     -34.586450      -941.1451
  17   1.0000     -34.557810      -940.3658
  18   1.0000     -34.557382      -940.3542
  19   1.0000     -34.557382      -940.3542
  20   1.0000      -4.877421      -132.7214
  21   1.0000      -4.877071      -132.7118
  22   1.0000      -4.877070      -132.7118
  23   1.0000      -4.846198      -131.8718
  24   1.0000      -3.346303       -91.0575
  25   1.0000      -3.343819       -90.9899
  26   1.0000      -3.343817       -90.9899
  27   1.0000      -3.341153       -90.9174
  28   1.0000      -3.340805       -90.9079
  29   1.0000      -3.340803       -90.9079
  30   1.0000      -3.339088       -90.8612
  31   1.0000      -3.339083       -90.8611
  32   1.0000      -3.338218       -90.8375
  33   1.0000      -3.311402       -90.1078
  34   1.0000      -3.309364       -90.0524
  35   1.0000      -3.309362       -90.0523
  36   1.0000      -0.942610       -25.6497
  37   1.0000      -0.863009       -23.4837
  38   1.0000      -0.835004       -22.7216
  39   1.0000      -0.834990       -22.7212
  40   1.0000      -0.825330       -22.4584
  41   1.0000      -0.825324       -22.4582
  42   1.0000      -0.824438       -22.4341
  43   1.0000      -0.809928       -22.0393
  44   1.0000      -0.809918       -22.0390
  45   1.0000      -0.809534       -22.0286
  46   1.0000      -0.801737       -21.8164
  47   1.0000      -0.801727       -21.8161
  48   1.0000      -0.797103       -21.6903
  49   1.0000      -0.796663       -21.6783
  50   1.0000      -0.796647       -21.6779
  51   1.0000      -0.776524       -21.1303
  52   1.0000      -0.776014       -21.1164
  53   1.0000      -0.776006       -21.1162
  54   1.0000      -0.771937       -21.0055
  55   1.0000      -0.765458       -20.8292
  56   1.0000      -0.765433       -20.8285
  57   1.0000      -0.662448       -18.0261
  58   0.0000      -0.397677       -10.8213
  59   0.0000      -0.397673       -10.8212
  60   0.0000      -0.317615        -8.6427
  61   0.0000      -0.297524        -8.0960
  62   0.0000      -0.270687        -7.3658

                 SPIN DOWN ORBITALS
  NO   OCC          E(Eh)            E(eV)
   0   1.0000    -323.974193     -8815.7860
   1   1.0000    -323.974191     -8815.7859
   2   1.0000    -323.974185     -8815.7857
   3   1.0000    -323.945689     -8815.0103
   4   1.0000     -39.483749     -1074.4074
   5   1.0000     -39.483747     -1074.4074
   6   1.0000     -39.483722     -1074.4067
   7   1.0000     -39.456408     -1073.6634
   8   1.0000     -34.585728      -941.1255
   9   1.0000     -34.585714      -941.1251
  10   1.0000     -34.585711      -941.1250
  11   1.0000     -34.584888      -941.1026
  12   1.0000     -34.584885      -941.1026
  13   1.0000     -34.584871      -941.1022
  14   1.0000     -34.584580      -941.0943
  15   1.0000     -34.584578      -941.0942
  16   1.0000     -34.584564      -941.0938
  17   1.0000     -34.557727      -940.3636
  18   1.0000     -34.557422      -940.3553
  19   1.0000     -34.557421      -940.3552
  20   1.0000      -4.872976      -132.6004
  21   1.0000      -4.872630      -132.5910
  22   1.0000      -4.872628      -132.5910
  23   1.0000      -4.845522      -131.8533
  24   1.0000      -3.339927       -90.8840
  25   1.0000      -3.338323       -90.8404
  26   1.0000      -3.338323       -90.8404
  27   1.0000      -3.336576       -90.7928
  28   1.0000      -3.336570       -90.7927
  29   1.0000      -3.336491       -90.7905
  30   1.0000      -3.334559       -90.7380
  31   1.0000      -3.334403       -90.7337
  32   1.0000      -3.334398       -90.7336
  33   1.0000      -3.311660       -90.1148
  34   1.0000      -3.308700       -90.0343
  35   1.0000      -3.308698       -90.0343
  36   1.0000      -0.920794       -25.0561
  37   1.0000      -0.854185       -23.2436
  38   1.0000      -0.832754       -22.6604
  39   1.0000      -0.832739       -22.6600
  40   1.0000      -0.819765       -22.3069
  41   1.0000      -0.819755       -22.3067
  42   1.0000      -0.818274       -22.2664
  43   1.0000      -0.807384       -21.9700
  44   1.0000      -0.807375       -21.9698
  45   1.0000      -0.799298       -21.7500
  46   1.0000      -0.794743       -21.6260
  47   1.0000      -0.794723       -21.6255
  48   1.0000      -0.794444       -21.6179
  49   1.0000      -0.783488       -21.3198
  50   1.0000      -0.783481       -21.3196
  51   1.0000      -0.774201       -21.0671
  52   1.0000      -0.774193       -21.0669
  53   1.0000      -0.773950       -21.0603
  54   1.0000      -0.767818       -20.8934
  55   1.0000      -0.760946       -20.7064
  56   1.0000      -0.760919       -20.7057
  57   0.0000      -0.447599       -12.1798
  58   0.0000      -0.401145       -10.9157
  59   0.0000      -0.401144       -10.9157
  60   0.0000      -0.319663        -8.6985
  61   0.0000      -0.307409        -8.3650

MULLIKEN ATOMIC CHARGES AND SPIN POPULATIONS
--------------------------------------------
   0 Cu:    0.458994    0.065608
   1 Cu:    0.459083    0.065583
   2 Cu:    0.459077    0.065591
   3 Cu:    0.352804    0.561167
   4 H :    0.270042    0.242051
Sum of atomic charges         :    2.0000000

LOEWDIN ATOMIC CHARGES AND SPIN POPULATIONS
-------------------------------------------
   0 Cu:    0.480951    0.230291
   1 Cu:    0.480959    0.230303
   2 Cu:    0.480958    0.230303
   3 Cu:    0.543678    0.173194
   4 H :    0.013454    0.135909

  Mayer bond orders larger than 0.100000
B(  0-Cu,  1-Cu) :   0.4021 B(  0-Cu,  2-Cu) :   0.4021 B(  0-Cu,  3-Cu) :   0.2625
B(  0-Cu,  4-H ) :   0.1949 B(  1-Cu,  2-Cu) :   0.4020 B(  1-Cu,  3-Cu) :   0.2625
B(  1-Cu,  4-H ) :   0.1949 B(  2-Cu,  3-Cu) :   0.2625 B(  2-Cu,  4-H ) :   0.1949

FINAL SINGLE POINT ENERGY     -6561.685946680061

DIPOLE MOMENT
-------------
                                X             Y             Z
Electronic contribution:     -0.00000       0.00001       1.61808
Nuclear contribution   :      0.00000       0.00000      -1.60670
                        -----------------------------------------
Total Dipole Moment    :     -0.00000       0.00001       0.01138
                        -----------------------------------------
Magnitude (a.u.)       :      0.01138
Magnitude (Debye)      :      0.02893

Rotational constants in cm-1:     0.045915     0.042882     0.042882
Rotational constants in MHz :  1376.483459  1285.559854  1285.559421

                             ****ORCA TERMINATED NORMALLY****
TOTAL RUN TIME: 0 days 0 hours 0 minutes 37 seconds 851 msec
