                         Program Version 4.2.0 -  RELEASE  -
|  1> #
|  2> # Cu04C2_NH3_A wB97M-V/Def2-TZVPPD
|  3> #
|  4> ! wb97m-v def2-tzvppd def2/jk grid4 nofinalgrid
|  5>
|  6> *xyz 2 1
|  7> Cu       0.543145   -0.896300    1.192832
|  8> Cu       0.543145   -0.896300   -1.192832
|  9> Cu      -1.492086   -0.543328    0.000000
| 10> Cu       0.211399    1.215580   -0.000000
| 11> N        0.543145    3.129666   -0.000000
| 12> H        0.146420    3.607894   -0.818022
| 13> H        0.146420    3.607894    0.818022
| 14> H        1.542647    3.366638   -0.000000
| 15> *
| 16>
| 17> %maxcore 5000
| 18>
| 19> %pal
| 20> nprocs = 24
| 21> end
| 22>
| 23>
| 24>                          ****END OF INPUT****

CARTESIAN COORDINATES (ANGSTROEM)
---------------------------------
  Cu     0.543145   -0.896300    1.192832
  Cu     0.543145   -0.896300   -1.192832
  Cu    -1.492086   -0.543328    0.000000
  Cu     0.211399    1.215580   -0.000000
  N      0.543145    3.129666   -0.000000
  H      0.146420    3.607894   -0.818022
  H      0.146420    3.607894    0.818022
  H      1.542647    3.366638   -0.000000

 Total Charge           Charge          ....    2
 Multiplicity           Mult            ....    1
 Number of Electrons    NEL             ....  124
 Basis Dimension        Dim             ....  356

ORBITAL ENERGIES
----------------

  NO   OCC          E(Eh)            E(eV)
   0   2.0000    -323.917606     -8814.2462
   1   2.0000    -323.917604     -8814.2461
   2   2.0000    -323.917598     -8814.2460
   3   2.0000    -323.905572     -8813.9187
   4   2.0000     -39.427862     -1072.8867
   5   2.0000     -39.427859     -1072.8866
   6   2.0000     -39.427837     -1072.8860
   7   2.0000     -39.422353     -1072.7368
   8   2.0000     -34.529209      -939.5876
   9   2.0000     -34.529196      -939.5872
  10   2.0000     -34.529193      -939.5871
  11   2.0000     -34.528912      -939.5795
  12   2.0000     -34.528910      -939.5794
  13   2.0000     -34.528902      -939.5792
  14   2.0000     -34.528790      -939.5761
  15   2.0000     -34.528787      -939.5761
  16   2.0000     -34.528775      -939.5757
  17   2.0000     -34.523047      -939.4199
  18   2.0000     -34.523047      -939.4199
  19   2.0000     -34.522408      -939.4025
  20   2.0000     -14.849520      -404.0760
  21   2.0000      -4.818143      -131.1083
  22   2.0000      -4.817763      -131.0980
  23   2.0000      -4.817761      -131.0979
  24   2.0000      -4.809085      -130.8619
  25   2.0000      -3.285301       -89.3976
  26   2.0000      -3.283192       -89.3402
  27   2.0000      -3.283186       -89.3400
  28   2.0000      -3.281542       -89.2953
  29   2.0000      -3.281530       -89.2950
  30   2.0000      -3.281416       -89.2919
  31   2.0000      -3.280940       -89.2789
  32   2.0000      -3.280732       -89.2733
  33   2.0000      -3.280730       -89.2732
  34   2.0000      -3.273643       -89.0804
  35   2.0000      -3.271404       -89.0194
  36   2.0000      -3.271393       -89.0191
  37   2.0000      -1.329617       -36.1807
  38   2.0000      -0.913874       -24.8678
  39   2.0000      -0.913852       -24.8672
  40   2.0000      -0.838303       -22.8114
  41   2.0000      -0.796795       -21.6819
  42   2.0000      -0.780388       -21.2354
  43   2.0000      -0.780377       -21.2351
  44   2.0000      -0.780207       -21.2305
  45   2.0000      -0.770210       -20.9585
  46   2.0000      -0.770200       -20.9582
  47   2.0000      -0.763738       -20.7824
  48   2.0000      -0.758265       -20.6335
  49   2.0000      -0.758247       -20.6329
  50   2.0000      -0.740315       -20.1450
  51   2.0000      -0.739446       -20.1213
  52   2.0000      -0.739429       -20.1209
  53   2.0000      -0.737873       -20.0786
  54   2.0000      -0.737870       -20.0785
  55   2.0000      -0.732607       -19.9352
  56   2.0000      -0.732590       -19.9348
  57   2.0000      -0.720503       -19.6059
  58   2.0000      -0.718723       -19.5575
  59   2.0000      -0.714389       -19.4395
  60   2.0000      -0.714387       -19.4394
  61   2.0000      -0.699987       -19.0476
  62   0.0000      -0.360109        -9.7991
  63   0.0000      -0.360087        -9.7985
  64   0.0000      -0.332558        -9.0494
  65   0.0000      -0.263011        -7.1569
  66   0.0000      -0.240119        -6.5340

MULLIKEN ATOMIC CHARGES
-----------------------
   0 Cu:    0.500649
   1 Cu:    0.500649
   2 Cu:    0.500631
   3 Cu:    0.138014
   4 N :   -0.272273
   5 H :    0.210768
   6 H :    0.210765
   7 H :    0.210796
Sum of atomic charges:    2.0000000

LOEWDIN ATOMIC CHARGES
----------------------
   0 Cu:    0.464284
   1 Cu:    0.464284
   2 Cu:    0.464299
   3 Cu:    0.263153
   4 N :    0.485220
   5 H :   -0.047074
   6 H :   -0.047074
   7 H :   -0.047091

  Mayer bond orders larger than 0.100000
B(  0-Cu,  1-Cu) :   0.3491 B(  0-Cu,  2-Cu) :   0.3492 B(  0-Cu,  3-Cu) :   0.2456
B(  1-Cu,  2-Cu) :   0.3492 B(  1-Cu,  3-Cu) :   0.2456 B(  2-Cu,  3-Cu) :   0.2457
B(  3-Cu,  4-N ) :   0.3534 B(  4-N ,  5-H ) :   0.9847 B(  4-N ,  6-H ) :   0.9847
B(  4-N ,  7-H ) :   0.9846

FINAL SINGLE POINT ENERGY     -6617.791266975267

DIPOLE MOMENT
-------------
                                X             Y             Z
Electronic contribution:     -2.29568     -13.23078       0.00000
Nuclear contribution   :      2.54223      14.65497       0.00000
                        -----------------------------------------
Total Dipole Moment    :      0.24654       1.42420       0.00000
                        -----------------------------------------
Magnitude (a.u.)       :      1.44538
Magnitude (Debye)      :      3.67386

Rotational constants in cm-1:     0.046273     0.029218     0.029214
Rotational constants in MHz :  1387.222495   875.924520   875.809559

                             ****ORCA TERMINATED NORMALLY****
TOTAL RUN TIME: 0 days 0 hours 0 minutes 58 seconds 779 msec
