                         Program Version 4.2.0 -  RELEASE  -
|  1> #
|  2> # Cu04C2_NH3_F wB97M-V/Def2-TZVPPD
|  3> #
|  4> ! wb97m-v def2-tzvppd def2/jk grid4 nofinalgrid
|  5>
|  6> *xyz 2 1
|  7> Cu       0.253817    1.375381    0.000000
|  8> Cu       0.253817   -0.687598    1.191098
|  9> Cu       0.253817   -0.687598   -1.191098
| 10> Cu      -1.745352    0.000159    0.000000
| 11> N        2.725949   -0.000959   -0.000000
| 12> H        3.150217   -0.936878   -0.000000
| 13> H        3.150637    0.466806   -0.810419
| 14> H        3.150637    0.466806    0.810419
| 15> *
| 16>
| 17> %maxcore 5000
| 18>
| 19> %pal
| 20> nprocs = 24
| 21> end
| 22>
| 23>
| 24>                          ****END OF INPUT****

CARTESIAN COORDINATES (ANGSTROEM)
---------------------------------
  Cu     0.253817    1.375381    0.000000
  Cu     0.253817   -0.687598    1.191098
  Cu     0.253817   -0.687598   -1.191098
  Cu    -1.745352    0.000159    0.000000
  N      2.725949   -0.000959   -0.000000
  H      3.150217   -0.936878   -0.000000
  H      3.150637    0.466806   -0.810419
  H      3.150637    0.466806    0.810419

 Total Charge           Charge          ....    2
 Multiplicity           Mult            ....    1
 Number of Electrons    NEL             ....  124
 Basis Dimension        Dim             ....  356

ORBITAL ENERGIES
----------------

  NO   OCC          E(Eh)            E(eV)
   0   2.0000    -323.918662     -8814.2749
   1   2.0000    -323.918648     -8814.2745
   2   2.0000    -323.918645     -8814.2744
   3   2.0000    -323.911652     -8814.0842
   4   2.0000     -39.428460     -1072.9029
   5   2.0000     -39.428447     -1072.9026
   6   2.0000     -39.428431     -1072.9022
   7   2.0000     -39.422369     -1072.7372
   8   2.0000     -34.530352      -939.6186
   9   2.0000     -34.530333      -939.6181
  10   2.0000     -34.530327      -939.6180
  11   2.0000     -34.529418      -939.5932
  12   2.0000     -34.529405      -939.5929
  13   2.0000     -34.529397      -939.5927
  14   2.0000     -34.529073      -939.5838
  15   2.0000     -34.529058      -939.5834
  16   2.0000     -34.529053      -939.5833
  17   2.0000     -34.523530      -939.4330
  18   2.0000     -34.523387      -939.4291
  19   2.0000     -34.523386      -939.4291
  20   2.0000     -14.837979      -403.7619
  21   2.0000      -4.819333      -131.1407
  22   2.0000      -4.818943      -131.1301
  23   2.0000      -4.818935      -131.1299
  24   2.0000      -4.811856      -130.9373
  25   2.0000      -3.286695       -89.4355
  26   2.0000      -3.284898       -89.3866
  27   2.0000      -3.284896       -89.3866
  28   2.0000      -3.283100       -89.3377
  29   2.0000      -3.283089       -89.3374
  30   2.0000      -3.282992       -89.3348
  31   2.0000      -3.282036       -89.3087
  32   2.0000      -3.281354       -89.2902
  33   2.0000      -3.281345       -89.2899
  34   2.0000      -3.277058       -89.1733
  35   2.0000      -3.275026       -89.1180
  36   2.0000      -3.275024       -89.1179
  37   2.0000      -1.317279       -35.8450
  38   2.0000      -0.901442       -24.5295
  39   2.0000      -0.901436       -24.5293
  40   2.0000      -0.818964       -22.2851
  41   2.0000      -0.801164       -21.8008
  42   2.0000      -0.784033       -21.3346
  43   2.0000      -0.784018       -21.3342
  44   2.0000      -0.773672       -21.0527
  45   2.0000      -0.773088       -21.0368
  46   2.0000      -0.773084       -21.0367
  47   2.0000      -0.760642       -20.6981
  48   2.0000      -0.760641       -20.6981
  49   2.0000      -0.760148       -20.6847
  50   2.0000      -0.741638       -20.1810
  51   2.0000      -0.741546       -20.1785
  52   2.0000      -0.741546       -20.1785
  53   2.0000      -0.740554       -20.1515
  54   2.0000      -0.740531       -20.1509
  55   2.0000      -0.736450       -20.0398
  56   2.0000      -0.736449       -20.0398
  57   2.0000      -0.733081       -19.9481
  58   2.0000      -0.720418       -19.6036
  59   2.0000      -0.718045       -19.5390
  60   2.0000      -0.718020       -19.5383
  61   2.0000      -0.682352       -18.5677
  62   0.0000      -0.363118        -9.8810
  63   0.0000      -0.363114        -9.8808
  64   0.0000      -0.339994        -9.2517
  65   0.0000      -0.274657        -7.4738
  66   0.0000      -0.247541        -6.7359

MULLIKEN ATOMIC CHARGES
-----------------------
   0 Cu:    0.487255
   1 Cu:    0.487377
   2 Cu:    0.487393
   3 Cu:    0.257216
   4 N :   -0.347924
   5 H :    0.209858
   6 H :    0.209419
   7 H :    0.209406
Sum of atomic charges:    2.0000000

LOEWDIN ATOMIC CHARGES
----------------------
   0 Cu:    0.413269
   1 Cu:    0.413183
   2 Cu:    0.413183
   3 Cu:    0.486824
   4 N :    0.495953
   5 H :   -0.074134
   6 H :   -0.074139
   7 H :   -0.074139

  Mayer bond orders larger than 0.100000
B(  0-Cu,  1-Cu) :   0.3414 B(  0-Cu,  2-Cu) :   0.3414 B(  0-Cu,  3-Cu) :   0.4002
B(  1-Cu,  2-Cu) :   0.3413 B(  1-Cu,  3-Cu) :   0.4000 B(  2-Cu,  3-Cu) :   0.4000
B(  4-N ,  5-H ) :   0.9978 B(  4-N ,  6-H ) :   0.9984 B(  4-N ,  7-H ) :   0.9984

FINAL SINGLE POINT ENERGY     -6617.743770252425

DIPOLE MOMENT
-------------
                                X             Y             Z
Electronic contribution:    -11.49958       0.00414      -0.00000
Nuclear contribution   :     13.00779      -0.00451       0.00000
                        -----------------------------------------
Total Dipole Moment    :      1.50821      -0.00037      -0.00000
                        -----------------------------------------
Magnitude (a.u.)       :      1.50821
Magnitude (Debye)      :      3.83356

Rotational constants in cm-1:     0.046405     0.032369     0.032369
Rotational constants in MHz :  1391.178817   970.405392   970.384771

                             ****ORCA TERMINATED NORMALLY****
TOTAL RUN TIME: 0 days 0 hours 0 minutes 52 seconds 507 msec
