                         Program Version 4.2.0 -  RELEASE  -
|  1> #
|  2> # Cu04N0 wB97M-V/Def2-TZVPPD
|  3> #
|  4> ! wb97m-v def2-tzvppd def2/jk grid4 nofinalgrid
|  5>
|  6> *xyz 0 1
|  7> Cu      -0.387876   -0.085256    2.052405
|  8> Cu       1.110029    0.096858    0.214111
|  9> Cu       0.386859    0.085217   -2.052443
| 10> Cu      -1.109011   -0.096818   -0.214073
| 11> *
| 12>
| 13> %maxcore 5000
| 14>
| 15> %pal
| 16> nprocs = 24
| 17> end
| 18>
| 19>
| 20>                          ****END OF INPUT****

CARTESIAN COORDINATES (ANGSTROEM)
---------------------------------
  Cu    -0.387876   -0.085256    2.052405
  Cu     1.110029    0.096858    0.214111
  Cu     0.386859    0.085217   -2.052443
  Cu    -1.109011   -0.096818   -0.214073

 Total Charge           Charge          ....    0
 Multiplicity           Mult            ....    1
 Number of Electrons    NEL             ....  116
 Basis Dimension        Dim             ....  268

ORBITAL ENERGIES
----------------

  NO   OCC          E(Eh)            E(eV)
   0   2.0000    -323.546244     -8804.1409
   1   2.0000    -323.546233     -8804.1406
   2   2.0000    -323.523962     -8803.5346
   3   2.0000    -323.523947     -8803.5342
   4   2.0000     -39.059740     -1062.8696
   5   2.0000     -39.059718     -1062.8690
   6   2.0000     -39.038396     -1062.2888
   7   2.0000     -39.038373     -1062.2881
   8   2.0000     -34.160951      -929.5667
   9   2.0000     -34.160943      -929.5665
  10   2.0000     -34.160371      -929.5510
  11   2.0000     -34.160363      -929.5507
  12   2.0000     -34.160288      -929.5487
  13   2.0000     -34.160282      -929.5485
  14   2.0000     -34.139769      -928.9903
  15   2.0000     -34.139751      -928.9899
  16   2.0000     -34.139134      -928.9731
  17   2.0000     -34.139117      -928.9726
  18   2.0000     -34.138237      -928.9487
  19   2.0000     -34.138221      -928.9482
  20   2.0000      -4.449002      -121.0635
  21   2.0000      -4.448512      -121.0502
  22   2.0000      -4.425134      -120.4140
  23   2.0000      -4.425114      -120.4135
  24   2.0000      -2.917313       -79.3841
  25   2.0000      -2.912887       -79.2637
  26   2.0000      -2.912026       -79.2403
  27   2.0000      -2.911613       -79.2290
  28   2.0000      -2.911102       -79.2151
  29   2.0000      -2.910782       -79.2064
  30   2.0000      -2.890834       -78.6636
  31   2.0000      -2.890740       -78.6610
  32   2.0000      -2.888554       -78.6016
  33   2.0000      -2.888512       -78.6004
  34   2.0000      -2.886029       -78.5328
  35   2.0000      -2.886009       -78.5323
  36   2.0000      -0.425695       -11.5838
  37   2.0000      -0.425063       -11.5666
  38   2.0000      -0.407136       -11.0787
  39   2.0000      -0.402093       -10.9415
  40   2.0000      -0.401945       -10.9375
  41   2.0000      -0.396516       -10.7898
  42   2.0000      -0.383837       -10.4447
  43   2.0000      -0.377312       -10.2672
  44   2.0000      -0.367970       -10.0130
  45   2.0000      -0.367305        -9.9949
  46   2.0000      -0.366466        -9.9720
  47   2.0000      -0.356974        -9.7137
  48   2.0000      -0.356900        -9.7117
  49   2.0000      -0.355538        -9.6747
  50   2.0000      -0.351640        -9.5686
  51   2.0000      -0.350991        -9.5509
  52   2.0000      -0.348799        -9.4913
  53   2.0000      -0.345877        -9.4118
  54   2.0000      -0.345332        -9.3970
  55   2.0000      -0.338861        -9.2209
  56   2.0000      -0.331954        -9.0329
  57   2.0000      -0.239227        -6.5097
  58   0.0000      -0.037308        -1.0152
  59   0.0000      -0.002148        -0.0585
  60   0.0000       0.001648         0.0449
  61   0.0000       0.029981         0.8158
  62   0.0000       0.033315         0.9065

MULLIKEN ATOMIC CHARGES
-----------------------
   0 Cu:   -0.274540
   1 Cu:    0.274596
   2 Cu:   -0.274617
   3 Cu:    0.274560
Sum of atomic charges:    0.0000000

LOEWDIN ATOMIC CHARGES
----------------------
   0 Cu:    0.170417
   1 Cu:   -0.170136
   2 Cu:    0.170420
   3 Cu:   -0.170701

  Mayer bond orders larger than 0.100000
B(  0-Cu,  1-Cu) :   0.4388 B(  0-Cu,  2-Cu) :   0.1142 B(  0-Cu,  3-Cu) :   0.4374
B(  1-Cu,  2-Cu) :   0.4373 B(  1-Cu,  3-Cu) :   0.3848 B(  2-Cu,  3-Cu) :   0.4390

FINAL SINGLE POINT ENERGY     -6561.771614424140

DIPOLE MOMENT
-------------
                                X             Y             Z
Electronic contribution:      0.00091       0.00009       0.00000
Nuclear contribution   :      0.00000       0.00000      -0.00000
                        -----------------------------------------
Total Dipole Moment    :      0.00091       0.00009       0.00000
                        -----------------------------------------
Magnitude (a.u.)       :      0.00092
Magnitude (Debye)      :      0.00233

Rotational constants in cm-1:     0.103116     0.030352     0.023450
Rotational constants in MHz :  3091.345194   909.942810   703.010463

                             ****ORCA TERMINATED NORMALLY****
TOTAL RUN TIME: 0 days 0 hours 0 minutes 26 seconds 789 msec
