                         Program Version 4.2.0 -  RELEASE  -
|  1> #
|  2> # Cu04C2 wB97M-V/Def2-TZVPPD
|  3> #
|  4> ! wb97m-v def2-tzvppd def2/jk grid4 nofinalgrid
|  5>
|  6> *xyz 2 1
|  7> Cu      -0.000001   -0.000007    1.488630
|  8> Cu       0.000001   -1.403449   -0.496203
|  9> Cu       1.215485    0.701727   -0.496214
| 10> Cu      -1.215485    0.701729   -0.496213
| 11> *
| 12>
| 13> %maxcore 5000
| 14>
| 15> %pal
| 16> nprocs = 24
| 17> end
| 18>
| 19>
| 20>                          ****END OF INPUT****

CARTESIAN COORDINATES (ANGSTROEM)
---------------------------------
  Cu    -0.000001   -0.000007    1.488630
  Cu     0.000001   -1.403449   -0.496203
  Cu     1.215485    0.701727   -0.496214
  Cu    -1.215485    0.701729   -0.496213

 Total Charge           Charge          ....    2
 Multiplicity           Mult            ....    1
 Number of Electrons    NEL             ....  114
 Basis Dimension        Dim             ....  268

ORBITAL ENERGIES
----------------

  NO   OCC          E(Eh)            E(eV)
   0   2.0000    -323.952136     -8815.1858
   1   2.0000    -323.952131     -8815.1856
   2   2.0000    -323.952127     -8815.1855
   3   2.0000    -323.952120     -8815.1853
   4   2.0000     -39.461843     -1073.8113
   5   2.0000     -39.461837     -1073.8112
   6   2.0000     -39.461834     -1073.8111
   7   2.0000     -39.461800     -1073.8102
   8   2.0000     -34.563077      -940.5091
   9   2.0000     -34.563077      -940.5091
  10   2.0000     -34.563072      -940.5090
  11   2.0000     -34.563061      -940.5087
  12   2.0000     -34.563060      -940.5087
  13   2.0000     -34.563057      -940.5086
  14   2.0000     -34.563055      -940.5085
  15   2.0000     -34.563053      -940.5085
  16   2.0000     -34.562890      -940.5040
  17   2.0000     -34.562883      -940.5039
  18   2.0000     -34.562880      -940.5038
  19   2.0000     -34.562865      -940.5034
  20   2.0000      -4.852476      -132.0426
  21   2.0000      -4.852096      -132.0322
  22   2.0000      -4.852090      -132.0321
  23   2.0000      -4.852089      -132.0321
  24   2.0000      -3.319812       -90.3367
  25   2.0000      -3.317598       -90.2764
  26   2.0000      -3.317592       -90.2763
  27   2.0000      -3.317592       -90.2763
  28   2.0000      -3.316296       -90.2410
  29   2.0000      -3.316291       -90.2409
  30   2.0000      -3.315415       -90.2170
  31   2.0000      -3.315412       -90.2169
  32   2.0000      -3.315409       -90.2169
  33   2.0000      -3.315162       -90.2101
  34   2.0000      -3.315160       -90.2101
  35   2.0000      -3.315156       -90.2100
  36   2.0000      -0.848070       -23.0772
  37   2.0000      -0.817549       -22.2467
  38   2.0000      -0.817546       -22.2466
  39   2.0000      -0.817527       -22.2460
  40   2.0000      -0.806704       -21.9515
  41   2.0000      -0.806697       -21.9513
  42   2.0000      -0.796911       -21.6851
  43   2.0000      -0.796911       -21.6850
  44   2.0000      -0.796889       -21.6845
  45   2.0000      -0.775664       -21.1069
  46   2.0000      -0.775646       -21.1064
  47   2.0000      -0.775641       -21.1063
  48   2.0000      -0.774079       -21.0638
  49   2.0000      -0.774056       -21.0631
  50   2.0000      -0.774035       -21.0626
  51   2.0000      -0.773400       -21.0453
  52   2.0000      -0.773393       -21.0451
  53   2.0000      -0.754534       -20.5319
  54   2.0000      -0.754524       -20.5316
  55   2.0000      -0.754506       -20.5312
  56   2.0000      -0.753026       -20.4909
  57   0.0000      -0.389692       -10.6041
  58   0.0000      -0.389691       -10.6040
  59   0.0000      -0.389690       -10.6040
  60   0.0000      -0.292014        -7.9461
  61   0.0000      -0.265763        -7.2318

MULLIKEN ATOMIC CHARGES
-----------------------
   0 Cu:    0.500012
   1 Cu:    0.499871
   2 Cu:    0.500058
   3 Cu:    0.500059
Sum of atomic charges:    2.0000000

LOEWDIN ATOMIC CHARGES
----------------------
   0 Cu:    0.500005
   1 Cu:    0.499991
   2 Cu:    0.500002
   3 Cu:    0.500002

  Mayer bond orders larger than 0.100000
B(  0-Cu,  1-Cu) :   0.3506 B(  0-Cu,  2-Cu) :   0.3506 B(  0-Cu,  3-Cu) :   0.3506
B(  1-Cu,  2-Cu) :   0.3507 B(  1-Cu,  3-Cu) :   0.3507 B(  2-Cu,  3-Cu) :   0.3505

FINAL SINGLE POINT ENERGY     -6561.141391129419

DIPOLE MOMENT
-------------
                                X             Y             Z
Electronic contribution:     -0.00000      -0.00000      -0.00001
Nuclear contribution   :      0.00000       0.00000      -0.00000
                        -----------------------------------------
Total Dipole Moment    :     -0.00000      -0.00000      -0.00001
                        -----------------------------------------
Magnitude (a.u.)       :      0.00002
Magnitude (Debye)      :      0.00004

Rotational constants in cm-1:     0.044890     0.044889     0.044888
Rotational constants in MHz :  1345.776498  1345.751239  1345.708462

                             ****ORCA TERMINATED NORMALLY****
TOTAL RUN TIME: 0 days 0 hours 0 minutes 24 seconds 864 msec
