                         Program Version 4.2.0 -  RELEASE  -
|  1> #
|  2> # Cu04C2_H_E wB97M-V/Def2-TZVPPD
|  3> #
|  4> ! wb97m-v def2-tzvppd def2/jk grid4 nofinalgrid
|  5>
|  6> *xyz 2 2
|  7> Cu      -0.967673    0.056725    1.180703
|  8> Cu      -0.972439   -0.054931   -1.177653
|  9> Cu       0.936359    1.185605   -0.057167
| 10> Cu       0.933653   -1.187345    0.053806
| 11> H        2.032882   -0.001578    0.009000
| 12> *
| 13>
| 14> %maxcore 5000
| 15>
| 16> %pal
| 17> nprocs = 24
| 18> end
| 19>
| 20>
| 21>                          ****END OF INPUT****

CARTESIAN COORDINATES (ANGSTROEM)
---------------------------------
  Cu    -0.967673    0.056725    1.180703
  Cu    -0.972439   -0.054931   -1.177653
  Cu     0.936359    1.185605   -0.057167
  Cu     0.933653   -1.187345    0.053806
  H      2.032882   -0.001578    0.009000

 Total Charge           Charge          ....    2
 Multiplicity           Mult            ....    2
 Number of Electrons    NEL             ....  115
 Basis Dimension        Dim             ....  285

ORBITAL ENERGIES
----------------
                 SPIN UP ORBITALS
  NO   OCC          E(Eh)            E(eV)
   0   1.0000    -323.978832     -8815.9122
   1   1.0000    -323.978822     -8815.9119
   2   1.0000    -323.955299     -8815.2719
   3   1.0000    -323.955251     -8815.2705
   4   1.0000     -39.494304     -1074.6946
   5   1.0000     -39.494284     -1074.6941
   6   1.0000     -39.464907     -1073.8947
   7   1.0000     -39.464861     -1073.8935
   8   1.0000     -34.597550      -941.4472
   9   1.0000     -34.597533      -941.4467
  10   1.0000     -34.594589      -941.3666
  11   1.0000     -34.594575      -941.3663
  12   1.0000     -34.592016      -941.2966
  13   1.0000     -34.592002      -941.2962
  14   1.0000     -34.566288      -940.5965
  15   1.0000     -34.566244      -940.5953
  16   1.0000     -34.565925      -940.5866
  17   1.0000     -34.565920      -940.5865
  18   1.0000     -34.565879      -940.5854
  19   1.0000     -34.565877      -940.5853
  20   1.0000      -4.884218      -132.9063
  21   1.0000      -4.883948      -132.8990
  22   1.0000      -4.855645      -132.1288
  23   1.0000      -4.855352      -132.1209
  24   1.0000      -3.355382       -91.3046
  25   1.0000      -3.353568       -91.2552
  26   1.0000      -3.348314       -91.1122
  27   1.0000      -3.347215       -91.0824
  28   1.0000      -3.341842       -90.9361
  29   1.0000      -3.341639       -90.9306
  30   1.0000      -3.322432       -90.4080
  31   1.0000      -3.320044       -90.3430
  32   1.0000      -3.319425       -90.3261
  33   1.0000      -3.318744       -90.3076
  34   1.0000      -3.318736       -90.3074
  35   1.0000      -3.318576       -90.3030
  36   1.0000      -0.911115       -24.7927
  37   1.0000      -0.863322       -23.4922
  38   1.0000      -0.835972       -22.7480
  39   1.0000      -0.835832       -22.7441
  40   1.0000      -0.828848       -22.5541
  41   1.0000      -0.821185       -22.3456
  42   1.0000      -0.819065       -22.2879
  43   1.0000      -0.816654       -22.2223
  44   1.0000      -0.813986       -22.1497
  45   1.0000      -0.802614       -21.8402
  46   1.0000      -0.802445       -21.8356
  47   1.0000      -0.799701       -21.7610
  48   1.0000      -0.794941       -21.6314
  49   1.0000      -0.792016       -21.5519
  50   1.0000      -0.783618       -21.3233
  51   1.0000      -0.779563       -21.2130
  52   1.0000      -0.779031       -21.1985
  53   1.0000      -0.777610       -21.1598
  54   1.0000      -0.775519       -21.1029
  55   1.0000      -0.769174       -20.9303
  56   1.0000      -0.763778       -20.7835
  57   1.0000      -0.685319       -18.6485
  58   0.0000      -0.396029       -10.7765
  59   0.0000      -0.391802       -10.6615
  60   0.0000      -0.333255        -9.0683
  61   0.0000      -0.294254        -8.0071
  62   0.0000      -0.278259        -7.5718

                 SPIN DOWN ORBITALS
  NO   OCC          E(Eh)            E(eV)
   0   1.0000    -323.978573     -8815.9051
   1   1.0000    -323.978562     -8815.9049
   2   1.0000    -323.954956     -8815.2625
   3   1.0000    -323.954904     -8815.2611
   4   1.0000     -39.489531     -1074.5648
   5   1.0000     -39.489511     -1074.5642
   6   1.0000     -39.464458     -1073.8825
   7   1.0000     -39.464422     -1073.8815
   8   1.0000     -34.591523      -941.2832
   9   1.0000     -34.591502      -941.2826
  10   1.0000     -34.590637      -941.2591
  11   1.0000     -34.590620      -941.2586
  12   1.0000     -34.590344      -941.2511
  13   1.0000     -34.590330      -941.2507
  14   1.0000     -34.565830      -940.5841
  15   1.0000     -34.565826      -940.5839
  16   1.0000     -34.565793      -940.5830
  17   1.0000     -34.565787      -940.5829
  18   1.0000     -34.565425      -940.5730
  19   1.0000     -34.565395      -940.5722
  20   1.0000      -4.876036      -132.6837
  21   1.0000      -4.875772      -132.6765
  22   1.0000      -4.854576      -132.0997
  23   1.0000      -4.854283      -132.0918
  24   1.0000      -3.341543       -90.9280
  25   1.0000      -3.339251       -90.8656
  26   1.0000      -3.338912       -90.8564
  27   1.0000      -3.338645       -90.8491
  28   1.0000      -3.338148       -90.8356
  29   1.0000      -3.337972       -90.8308
  30   1.0000      -3.320961       -90.3680
  31   1.0000      -3.319341       -90.3239
  32   1.0000      -3.318495       -90.3008
  33   1.0000      -3.318109       -90.2903
  34   1.0000      -3.317966       -90.2864
  35   1.0000      -3.317195       -90.2655
  36   1.0000      -0.881505       -23.9870
  37   1.0000      -0.852094       -23.1867
  38   1.0000      -0.831366       -22.6226
  39   1.0000      -0.830707       -22.6047
  40   1.0000      -0.824436       -22.4341
  41   1.0000      -0.815733       -22.1972
  42   1.0000      -0.815125       -22.1807
  43   1.0000      -0.811357       -22.0781
  44   1.0000      -0.801569       -21.8118
  45   1.0000      -0.795515       -21.6471
  46   1.0000      -0.794943       -21.6315
  47   1.0000      -0.792089       -21.5538
  48   1.0000      -0.787191       -21.4205
  49   1.0000      -0.785966       -21.3872
  50   1.0000      -0.781472       -21.2649
  51   1.0000      -0.775920       -21.1139
  52   1.0000      -0.775100       -21.0915
  53   1.0000      -0.768469       -20.9111
  54   1.0000      -0.768326       -20.9072
  55   1.0000      -0.759217       -20.6594
  56   1.0000      -0.758040       -20.6273
  57   0.0000      -0.459459       -12.5025
  58   0.0000      -0.399515       -10.8713
  59   0.0000      -0.391264       -10.6468
  60   0.0000      -0.327770        -8.9191
  61   0.0000      -0.302584        -8.2337

MULLIKEN ATOMIC CHARGES AND SPIN POPULATIONS
--------------------------------------------
   0 Cu:    0.406331    0.265678
   1 Cu:    0.405219    0.269014
   2 Cu:    0.366864    0.086297
   3 Cu:    0.366601    0.086292
   4 H :    0.454985    0.292718
Sum of atomic charges         :    2.0000000

LOEWDIN ATOMIC CHARGES AND SPIN POPULATIONS
-------------------------------------------
   0 Cu:    0.515029    0.125108
   1 Cu:    0.515427    0.125006
   2 Cu:    0.473318    0.291873
   3 Cu:    0.473139    0.291962
   4 H :    0.023086    0.166051

  Mayer bond orders larger than 0.100000
B(  0-Cu,  1-Cu) :   0.5860 B(  0-Cu,  2-Cu) :   0.2410 B(  0-Cu,  3-Cu) :   0.2412
B(  1-Cu,  2-Cu) :   0.2397 B(  1-Cu,  3-Cu) :   0.2403 B(  2-Cu,  3-Cu) :   0.6366
B(  2-Cu,  4-H ) :   0.2420 B(  3-Cu,  4-H ) :   0.2417

FINAL SINGLE POINT ENERGY     -6561.684850429619

DIPOLE MOMENT
-------------
                                X             Y             Z
Electronic contribution:     -2.33640       0.00220      -0.01086
Nuclear contribution   :      2.08414      -0.00162       0.00923
                        -----------------------------------------
Total Dipole Moment    :     -0.25226       0.00058      -0.00163
                        -----------------------------------------
Magnitude (a.u.)       :      0.25227
Magnitude (Debye)      :      0.64122

Rotational constants in cm-1:     0.047295     0.040918     0.040701
Rotational constants in MHz :  1417.862725  1226.705268  1220.194326

                             ****ORCA TERMINATED NORMALLY****
TOTAL RUN TIME: 0 days 0 hours 0 minutes 37 seconds 147 msec
