                         Program Version 4.2.0 -  RELEASE  -
|  1> #
|  2> # NH3 wB97M-V/Def2-TZVPPD
|  3> #
|  4> ! wb97m-v def2-tzvppd def2/jk grid4 nofinalgrid
|  5>
|  6> *xyz 0 1
|  7> N       -0.000000    0.125670    0.000000
|  8> H       -0.933163   -0.293418    0.000000
|  9> H        0.466582   -0.293138    0.808252
| 10> H        0.466582   -0.293138   -0.808252
| 11> *
| 12>
| 13> %maxcore 5000
| 14>
| 15> %pal
| 16> nprocs = 24
| 17> end
| 18>
| 19>
| 20>                          ****END OF INPUT****

CARTESIAN COORDINATES (ANGSTROEM)
---------------------------------
  N     -0.000000    0.125670    0.000000
  H     -0.933163   -0.293418    0.000000
  H      0.466582   -0.293138    0.808252
  H      0.466582   -0.293138   -0.808252

 Total Charge           Charge          ....    0
 Multiplicity           Mult            ....    1
 Number of Electrons    NEL             ....   10
 Basis Dimension        Dim             ....   88

ORBITAL ENERGIES
----------------

  NO   OCC          E(Eh)            E(eV)
   0   2.0000     -14.488941      -394.2641
   1   2.0000      -0.977872       -26.6093
   2   2.0000      -0.562839       -15.3156
   3   2.0000      -0.562789       -15.3143
   4   2.0000      -0.383910       -10.4467
   5   0.0000       0.044386         1.2078
   6   0.0000       0.120483         3.2785
   7   0.0000       0.120488         3.2786
   8   0.0000       0.169655         4.6165
   9   0.0000       0.185327         5.0430

MULLIKEN ATOMIC CHARGES
-----------------------
   0 N :   -0.306282
   1 H :    0.102006
   2 H :    0.102138
   3 H :    0.102138
Sum of atomic charges:   -0.0000000

LOEWDIN ATOMIC CHARGES
----------------------
   0 N :    0.452300
   1 H :   -0.150751
   2 H :   -0.150774
   3 H :   -0.150774

  Mayer bond orders larger than 0.100000
B(  0-N ,  1-H ) :   1.0114 B(  0-N ,  2-H ) :   1.0113 B(  0-N ,  3-H ) :   1.0113

FINAL SINGLE POINT ENERGY       -56.552551371580

DIPOLE MOMENT
-------------
                                X             Y             Z
Electronic contribution:      0.00006       0.32350      -0.00000
Nuclear contribution   :      0.00000      -0.96926       0.00000
                        -----------------------------------------
Total Dipole Moment    :      0.00006      -0.64576      -0.00000
                        -----------------------------------------
Magnitude (a.u.)       :      0.64576
Magnitude (Debye)      :      1.64138

Rotational constants in cm-1:     9.616093     9.614148     6.400903
Rotational constants in MHz : 288283.214631 288224.911301 191894.257358

                             ****ORCA TERMINATED NORMALLY****
TOTAL RUN TIME: 0 days 0 hours 0 minutes 3 seconds 123 msec
