                               Psi4 1.3.2 release

  ==> Input File <==

--------------------------------------------------------------------------
memory 144 GB

molecule {
0 1
Ag       0.000000    0.000000    0.033547
H        0.000000    0.000000   -1.576706
 }

set basis Def2-TZVPPD

energy("MN15-D3BJ")
--------------------------------------------------------------------------

    Molecular point group: c2v

    Geometry (in Angstrom), charge = 0, multiplicity = 1:

       Center              X                  Y                   Z               Mass
    ------------   -----------------  -----------------  -----------------  -----------------
         AG           0.000000000000     0.000000000000     0.015038545267   106.905091600000
         H            0.000000000000     0.000000000000    -1.595214454733     1.007825032230

  Charge       = 0
  Multiplicity = 1
  Basis Set: DEF2-TZVPPD
    Blend: DEF2-TZVPPD
  Basis Set: (DEF2-TZVPPD AUX)
    Blend: DEF2-TZVPP-JKFIT

    Orbital Energies [Eh]
    ---------------------

    Doubly Occupied:

       1A1    -3.661759     2A1    -2.314275     1B2    -2.308824
       1B1    -2.308824     3A1    -0.429834     2B2    -0.388279
       2B1    -0.388279     1A2    -0.381830     4A1    -0.381825
       5A1    -0.282073

  @DF-RKS Final Energy:  -147.26557641089039

   => Energetics <=

    Nuclear Repulsion Energy =              6.2439672540464146
    One-Electron Energy =                -273.3855481509988863
    Two-Electron Energy =                 128.0492276368983653
    DFT Exchange-Correlation Energy =      -8.1732097708363103
    Empirical Dispersion Energy =          -0.0000133800000000
    VV10 Nonlocal Energy =                  0.0000000000000000
    Total Energy =                       -147.2655764108904179

  Dipole Moment: [D]
     X:     0.0000      Y:     0.0000      Z:     2.9107     Total:     2.9107

*** Psi4 exiting successfully. Buy a developer a beer!
