                               Psi4 1.4.1 release

  ==> Input File <==

--------------------------------------------------------------------------
memory 144 GB

molecule {
0 2
Ag       0.000000    0.000000    0.000000
 }

set reference uks
set basis Def2-TZVPPD

energy("MN15-D3BJ")
--------------------------------------------------------------------------

    Molecular point group: d2h
    Geometry (in Angstrom), charge = 0, multiplicity = 2:

       Center              X                  Y                   Z               Mass
    ------------   -----------------  -----------------  -----------------  -----------------
         AG           0.000000000000     0.000000000000     0.000000000000   106.905091600000

  Charge       = 0
  Multiplicity = 2
  Basis Set: DEF2-TZVPPD
    Blend: DEF2-TZVPPD
  Basis Set: (DEF2-TZVPPD AUX)
    Blend: DEF2-UNIVERSAL-JKFIT

    Orbital Energies [Eh]
    ---------------------

    Alpha Occupied:

       1Ag    -3.640941     1B2u   -2.290779     1B3u   -2.290779
       1B1u   -2.290779     2Ag    -0.371452     1B1g   -0.371452
       1B3g   -0.371452     3Ag    -0.371452     1B2g   -0.371452
       4Ag    -0.222262

    Alpha Virtual:

       2B2u    0.006711     2B3u    0.006711     2B1u    0.006712
       5Ag     0.127774     3B2u    0.239407     3B3u    0.239407
       3B1u    0.239408     6Ag     0.450603     2B1g    0.450603
       2B3g    0.450603     7Ag     0.450603     2B2g    0.450603
       4B2u    1.585667     4B3u    1.585667     4B1u    1.585667
       1Au     1.585667     5B2u    1.585667     5B1u    1.585668
       5B3u    1.585668     6B2u    1.633468     6B3u    1.633469
       6B1u    1.633469     8Ag     1.839696     9Ag     2.040505
       3B1g    2.040505     3B3g    2.040505    10Ag     2.040506
       3B2g    2.040506     7B1u    4.621593     7B2u    4.621593
       7B3u    4.621593     2Au     4.621593     8B1u    4.621593
       8B2u    4.621593     8B3u    4.621593    11Ag     5.430117
       4B1g    5.430117     4B3g    5.430117     4B2g    5.430117
      12Ag     5.430117     5B3g    5.430117     5B1g    5.430117
      13Ag     5.430118     5B2g    5.430118    14Ag    32.731688
      15Ag   110.541792

    Beta Occupied:

       1Ag    -3.639280     1B1u   -2.289500     1B3u   -2.289500
       1B2u   -2.289499     2Ag    -0.365227     1B2g   -0.365227
       1B1g   -0.365227     1B3g   -0.365227     3Ag    -0.365227

    Beta Virtual:

       4Ag    -0.084549     2B1u    0.058238     2B3u    0.058239
       2B2u    0.058240     5Ag     0.165345     3B1u    0.245372
       3B3u    0.245372     3B2u    0.245372     6Ag     0.458157
       2B2g    0.458157     2B3g    0.458158     2B1g    0.458158
       7Ag     0.458159     4B2u    1.601169     4B3u    1.601169
       4B1u    1.601169     1Au     1.601169     5B2u    1.601169
       5B1u    1.601169     5B3u    1.601169     6B1u    1.644402
       6B3u    1.644402     6B2u    1.644403     8Ag     1.850238
       9Ag     2.056457     3B2g    2.056457     3B3g    2.056457
       3B1g    2.056457    10Ag     2.056457     7B2u    4.627635
       7B3u    4.627635     7B1u    4.627635     2Au     4.627635
       8B2u    4.627635     8B1u    4.627635     8B3u    4.627635
      11Ag     5.432107     4B1g    5.432107     4B3g    5.432107
       4B2g    5.432107    12Ag     5.432107     5B3g    5.432107
       5B1g    5.432107    13Ag     5.432107     5B2g    5.432107
      14Ag    32.748783    15Ag   110.547974

    Final Occupation by Irrep:
             Ag   B1g   B2g   B3g    Au   B1u   B2u   B3u
    DOCC [     3,    1,    1,    1,    0,    1,    1,    1 ]
    SOCC [     1,    0,    0,    0,    0,    0,    0,    0 ]

  @DF-UKS Final Energy:  -146.67675811293392

   => Energetics <=

    Nuclear Repulsion Energy =              0.0000000000000000
    One-Electron Energy =                -260.6474390034435942
    Two-Electron Energy =                 121.9387949405138727
    DFT Exchange-Correlation Energy =      -7.9681140500042069
    Empirical Dispersion Energy =           0.0000000000000000
    VV10 Nonlocal Energy =                  0.0000000000000000
    Total Energy =                       -146.6767581129339248

  UHF NO Occupations:
  HONO-2 :    1B1g 1.9999802
  HONO-1 :    3 Ag 1.9999802
  HONO-0 :    4 Ag 1.0000000
  LUNO+0 :    5 Ag 0.0000198
  LUNO+1 :    2B1g 0.0000198
  LUNO+2 :    2B3g 0.0000198
  LUNO+3 :    2B2g 0.0000198

Computation Completed

Properties will be evaluated at   0.000000,   0.000000,   0.000000 [a0]

Properties computed using the SCF density matrix

  Nuclear Dipole Moment: [e a0]
     X:     0.0000      Y:     0.0000      Z:     0.0000

  Electronic Dipole Moment: [e a0]
     X:     0.0000      Y:     0.0000      Z:     0.0000

  Dipole Moment: [e a0]
     X:     0.0000      Y:     0.0000      Z:     0.0000     Total:     0.0000

  Dipole Moment: [D]
     X:     0.0000      Y:     0.0000      Z:     0.0000     Total:     0.0000

*** tstop() called on compute405.bc4.acrc.priv at Tue Nov  2 11:08:26 2021
Module time:
	user time   =      67.68 seconds =       1.13 minutes
	system time =       2.51 seconds =       0.04 minutes
	total time  =          5 seconds =       0.08 minutes
Total time:
	user time   =      67.68 seconds =       1.13 minutes
	system time =       2.51 seconds =       0.04 minutes
	total time  =          5 seconds =       0.08 minutes

    Psi4 stopped on: Tuesday, 02 November 2021 11:08AM
    Psi4 wall time for execution: 0:00:05.58

*** Psi4 exiting successfully. Buy a developer a beer!
