                               Psi4 1.3.2 release

  ==> Input File <==

--------------------------------------------------------------------------
memory 144 GB

molecule {
0 1
Ag       0.000000    0.000000    0.317712
F        0.000000    0.000000   -1.659163
 }

set basis Def2-TZVPPD

energy("MN15-D3BJ")
--------------------------------------------------------------------------

    Molecular point group: c2v

    Geometry (in Angstrom), charge = 0, multiplicity = 1:

       Center              X                  Y                   Z               Mass
    ------------   -----------------  -----------------  -----------------  -----------------
         AG           0.000000000000     0.000000000000     0.298303619952   106.905091600000
         F            0.000000000000     0.000000000000    -1.678571380048    18.998403162730

  Charge       = 0
  Multiplicity = 1
  Basis Set: DEF2-TZVPPD
    Blend: DEF2-TZVPPD
  Basis Set: (DEF2-TZVPPD AUX)
    Blend: DEF2-TZVPP-JKFIT

    Orbital Energies [Eh]
    ---------------------

    Doubly Occupied:

       1A1   -24.158599     2A1    -3.679620     1B2    -2.331257
       1B1    -2.331257     3A1    -2.328390     4A1    -1.064247
       5A1    -0.447466     2B1    -0.425346     2B2    -0.425346
       1A2    -0.407153     6A1    -0.407145     3B1    -0.338275
       3B2    -0.338275     7A1    -0.330258

  @DF-RKS Final Energy:  -246.48830092373873

   => Energetics <=

    Nuclear Repulsion Energy =             45.7739123741106511
    One-Electron Energy =                -492.3432548236908133
    Two-Electron Energy =                 214.0382684704597693
    DFT Exchange-Correlation Energy =     -13.9572115546183291
    Empirical Dispersion Energy =          -0.0000153900000000
    VV10 Nonlocal Energy =                  0.0000000000000000
    Total Energy =                       -246.4883009237387341

  Dipole Moment: [D]
     X:     0.0000      Y:     0.0000      Z:     5.8395     Total:     5.8395

*** Psi4 exiting successfully. Buy a developer a beer!
