                               Psi4 1.3.2 release

  ==> Input File <==

--------------------------------------------------------------------------
memory 144 GB

molecule {
0 1
Ag       0.000000    0.000000    1.261821
Ag       0.000000    0.000000   -1.261821
 }

set basis Def2-TZVPPD

energy("MN15-D3BJ")
--------------------------------------------------------------------------

    Molecular point group: d2h

    Geometry (in Angstrom), charge = 0, multiplicity = 1:

       Center              X                  Y                   Z               Mass
    ------------   -----------------  -----------------  -----------------  -----------------
         AG           0.000000000000     0.000000000000     1.261821000000   106.905091600000
         AG           0.000000000000     0.000000000000    -1.261821000000   106.905091600000

  Charge       = 0
  Multiplicity = 1
  Basis Set: DEF2-TZVPPD
    Blend: DEF2-TZVPPD
  Basis Set: (DEF2-TZVPPD AUX)
    Blend: DEF2-TZVPP-JKFIT

    Orbital Energies [Eh]
    ---------------------

    Doubly Occupied:

       1Ag    -3.637302     1B1u   -3.636531     2Ag    -2.292392
       1B2u   -2.285910     1B3u   -2.285910     1B3g   -2.285142
       1B2g   -2.285142     2B1u   -2.283880     3Ag    -0.403770
       2B2u   -0.386839     2B3u   -0.386839     4Ag    -0.365612
       1B1g   -0.365596     3B1u   -0.357031     1Au    -0.357015
       2B3g   -0.344021     2B2g   -0.344021     4B1u   -0.336646
       5Ag    -0.238044

  @DF-RKS Final Energy:  -293.41945130594667

   => Energetics <=

    Nuclear Repulsion Energy =             75.6973346662759781
    One-Electron Energy =                -672.8851923953378673
    Two-Electron Energy =                 319.7442735080365424
    DFT Exchange-Correlation Energy =     -15.9758235949213123
    Empirical Dispersion Energy =          -0.0000434900000000
    VV10 Nonlocal Energy =                  0.0000000000000000
    Total Energy =                       -293.4194513059466658

  Dipole Moment: [D]
     X:     0.0000      Y:     0.0000      Z:     0.0000     Total:     0.0000

*** Psi4 exiting successfully. Buy a developer a beer!
