                               Psi4 1.3.2 release

  ==> Input File <==

--------------------------------------------------------------------------
memory 144 GB

molecule {
1 1
Ag       0.000000    1.529877    0.000000
Ag       1.324912   -0.764938    0.000000
Ag      -1.324912   -0.764938    0.000000
 }

set basis Def2-TZVPPD

energy("MN15-D3BJ")
--------------------------------------------------------------------------

    Molecular point group: c2v

    Geometry (in Angstrom), charge = 1, multiplicity = 1:

       Center              X                  Y                   Z               Mass
    ------------   -----------------  -----------------  -----------------  -----------------
         AG           0.000000000000     0.000000000000     1.529876666667   106.905091600000
         AG           1.324912000000     0.000000000000    -0.764938333333   106.905091600000
         AG          -1.324912000000    -0.000000000000    -0.764938333333   106.905091600000

  Charge       = 1
  Multiplicity = 1
  Basis Set: DEF2-TZVPPD
    Blend: DEF2-TZVPPD
  Basis Set: (DEF2-TZVPPD AUX)
    Blend: DEF2-TZVPP-JKFIT

    Orbital Energies [Eh]
    ---------------------

    Doubly Occupied:

       1A1    -3.843448     2A1    -3.842835     1B1    -3.842833
       3A1    -2.497960     2B1    -2.495535     4A1    -2.495530
       3B1    -2.492091     1B2    -2.491805     2B2    -2.491127
       1A2    -2.491126     4B1    -2.490973     5A1    -2.490965
       6A1    -0.617836     5B1    -0.601570     7A1    -0.601564
       3B2    -0.597226     8A1    -0.582609     4B2    -0.579224
       2A2    -0.579223     9A1    -0.558481     6B1    -0.558481
       3A2    -0.554792     5B2    -0.551573     4A2    -0.551568
       7B1    -0.550944    10A1    -0.550933     8B1    -0.531151
      11A1    -0.459366

  @DF-RKS Final Energy:  -439.91997864527121

   => Energetics <=

    Nuclear Repulsion Energy =            216.2781024753185477
    One-Electron Energy =               -1203.0804675809376931
    Two-Electron Energy =                 570.7437223389850942
    DFT Exchange-Correlation Energy =     -23.8612068586371819
    Empirical Dispersion Energy =          -0.0001290200000000
    VV10 Nonlocal Energy =                  0.0000000000000000
    Total Energy =                       -439.9199786452712146

  Dipole Moment: [D]
     X:     0.0000      Y:     0.0000      Z:    -0.0000     Total:     0.0000

*** Psi4 exiting successfully. Buy a developer a beer!
