                               Psi4 1.3.2 release

  ==> Input File <==

--------------------------------------------------------------------------
memory 144 GB

molecule {
0 2
Ag       0.000000    0.000000    0.000000
Ag       0.000000    0.000000    2.592532
Ag       0.000000    0.000000   -2.592532
 }

set reference uks
set basis Def2-TZVPPD

energy("MN15-D3BJ")
--------------------------------------------------------------------------

    Molecular point group: d2h

    Geometry (in Angstrom), charge = 0, multiplicity = 2:

       Center              X                  Y                   Z               Mass
    ------------   -----------------  -----------------  -----------------  -----------------
         AG           0.000000000000     0.000000000000     0.000000000000   106.905091600000
         AG           0.000000000000     0.000000000000     2.592532000000   106.905091600000
         AG           0.000000000000     0.000000000000    -2.592532000000   106.905091600000

  Charge       = 0
  Multiplicity = 2
  Basis Set: DEF2-TZVPPD
    Blend: DEF2-TZVPPD
  Basis Set: (DEF2-TZVPPD AUX)
    Blend: DEF2-TZVPP-JKFIT

    Orbital Energies [Eh]
    ---------------------

    Alpha Occupied:

       1Ag    -3.648744     1B1u   -3.648740     2Ag    -3.634113
       2B1u   -2.301022     3Ag    -2.299607     1B3u   -2.297529
       1B2u   -2.297529     1B2g   -2.297522     1B3g   -2.297522
       3B1u   -2.283997     2B3u   -2.282031     2B2u   -2.282031
       4Ag    -0.422130     2B2g   -0.398234     2B3g   -0.398233
       4B1u   -0.381650     3B3u   -0.379626     3B2u   -0.379626
       5Ag    -0.376550     1B1g   -0.376537     5B1u   -0.375221
       1Au    -0.375208     6Ag    -0.354654     2B1g   -0.354635
       3B2g   -0.341068     3B3g   -0.341068     7Ag    -0.333759
       8Ag    -0.264040     6B1u   -0.222262

    Alpha Virtual:

       9Ag    -0.060923     4B3u   -0.018708     4B2u   -0.018708
       7B1u    0.013025     4B2g    0.020486     4B3g    0.020486
       5B3u    0.097710     5B2u    0.097710    10Ag     0.117925
      11Ag     0.136500     8B1u    0.138134     9B1u    0.175461
       6B2u    0.218542     6B3u    0.218542    12Ag     0.224549
       5B2g    0.249653     5B3g    0.249653     7B3u    0.302351
       7B2u    0.302351    10B1u    0.303986    13Ag     0.336740
       3B1g    0.394223    14Ag     0.394232     6B2g    0.433217
       6B3g    0.433217     2Au     0.442091    11B1u    0.442093
      12B1u    0.483127    15Ag     0.532221     4B1g    0.532224
       8B3u    0.544240     8B2u    0.544240    16Ag     0.655575
      13B1u    0.727120     7B2g    0.728792     7B3g    0.728792
      17Ag     0.796415    14B1u    1.432934     9B3u    1.528841
       9B2u    1.528841    15B1u    1.574926     3Au     1.574971
      10B2u    1.585951    10B3u    1.585951    18Ag     1.585984
       8B3g    1.586002     8B2g    1.586002     5B1g    1.586025
      19Ag     1.602967     9B2g    1.608739     9B3g    1.608739
      11B2u    1.611240    11B3u    1.611240    16B1u    1.614707
       4Au     1.614773    12B3u    1.627751    12B2u    1.627752
      13B3u    1.644298    13B2u    1.644298    17B1u    1.684678
      10B2g    1.690598    10B3g    1.690598    20Ag     1.691546
      18B1u    1.756389    14B3u    1.757533    14B2u    1.757533
      21Ag     1.872968    19B1u    1.949055    22Ag     2.029678
       6B1g    2.029689    20B1u    2.040450     5Au     2.040469
      11B2g    2.053072    11B3g    2.053072    23Ag     2.091696
       7B1g    2.091700    15B3u    2.107140    15B2u    2.107140
      24Ag     2.139490    21B1u    2.164531    12B2g    2.204902
      12B3g    2.204902    22B1u    2.318054    25Ag     2.340370
      26Ag     2.641092    23B1u    4.558787    16B3u    4.568874
      16B2u    4.568874    24B1u    4.608739     6Au     4.608783
      17B2u    4.616666    17B3u    4.616666    13B3g    4.616711
      13B2g    4.616711    27Ag     4.618655     8B1g    4.618696
      18B2u    4.634544    18B3u    4.634544    25B1u    4.641104
       7Au     4.641160    14B2g    4.658365    14B3g    4.658365
      19B3u    4.717629    19B2u    4.717630    28Ag     4.778004
      26B1u    4.926384    20B3u    5.422306    20B2u    5.422306
      27B1u    5.422635     8Au     5.422745    29Ag     5.422979
      15B2g    5.423069    15B3g    5.423069     9B1g    5.423088
      21B3u    5.424350    21B2u    5.424350    16B2g    5.424350
      16B3g    5.424350    30Ag     5.425330    28B1u    5.425798
      31Ag     5.425798     9Au     5.426006    10B1g    5.426006
      29B1u    5.426688    32Ag     5.439036    11B1g    5.439206
      17B2g    5.441005    17B3g    5.441006    18B2g    5.441692
      18B3g    5.441692    33Ag     5.444212    12B1g    5.444512
      34Ag     5.457967    35Ag    32.790869    30B1u   32.937321
      36Ag    33.329662    37Ag   110.555264    31B1u  110.600280
      38Ag   110.732228

    Beta Occupied:

       1Ag    -3.647866     1B1u   -3.647861     2Ag    -3.634552
       2B1u   -2.300964     3Ag    -2.299527     1B3u   -2.296734
       1B2u   -2.296734     1B2g   -2.296713     1B3g   -2.296712
       3B1u   -2.284506     2B3u   -2.282142     2B2u   -2.282142
       4Ag    -0.418294     2B2g   -0.395716     2B3g   -0.395716
       4B1u   -0.378595     3B3u   -0.376287     3B2u   -0.376287
       5Ag    -0.373164     1B1g   -0.373149     5B1u   -0.371487
       1Au    -0.371472     6Ag    -0.355284     2B1g   -0.355265
       3B2g   -0.340671     3B3g   -0.340671     7Ag    -0.331600
       8Ag    -0.242592

    Beta Virtual:

       6B1u   -0.124546     9Ag    -0.035269     4B3u   -0.008955
       4B2u   -0.008955     7B1u    0.039461     4B2g    0.045473
       4B3g    0.045473     5B3u    0.107405     5B2u    0.107405
      10Ag     0.127957    11Ag     0.146982     8B1u    0.156530
       9B1u    0.182400     6B2u    0.222408     6B3u    0.222408
      12Ag     0.230383     5B3g    0.256715     5B2g    0.256715
       7B3u    0.302288     7B2u    0.302288    10B1u    0.310867
      13Ag     0.341379     3B1g    0.395652    14Ag     0.395654
       6B2g    0.439965     6B3g    0.439965    11B1u    0.445859
       2Au     0.445865    12B1u    0.482450    15Ag     0.530520
       4B1g    0.530526     8B3u    0.547146     8B2u    0.547146
      16Ag     0.655073    13B1u    0.726740     7B2g    0.729390
       7B3g    0.729390    17Ag     0.798156    14B1u    1.436431
       9B3u    1.533240     9B2u    1.533240    15B1u    1.580972
       3Au     1.581031    18Ag     1.594500     5B1g    1.594556
      10B3u    1.595399    10B2u    1.595399     8B2g    1.595495
       8B3g    1.595495    19Ag     1.607034    11B2u    1.608932
      11B3u    1.608932     9B2g    1.615230     9B3g    1.615230
      16B1u    1.615273     4Au     1.615338    12B3u    1.632697
      12B2u    1.632697    13B3u    1.645578    13B2u    1.645578
      17B1u    1.689029    20Ag     1.697938    10B2g    1.698466
      10B3g    1.698466    14B3u    1.758512    14B2u    1.758512
      18B1u    1.759430    21Ag     1.878384    19B1u    1.952368
      22Ag     2.035702     6B1g    2.035705    20B1u    2.050639
       5Au     2.050646    11B2g    2.061358    11B3g    2.061358
      23Ag     2.093009     7B1g    2.093015    15B3u    2.115558
      15B2u    2.115559    24Ag     2.146853    21B1u    2.169374
      12B2g    2.205004    12B3g    2.205004    22B1u    2.326860
      25Ag     2.343225    26Ag     2.644110    23B1u    4.560531
      16B3u    4.570393    16B2u    4.570393    24B1u    4.611136
       6Au     4.611192    17B3u    4.620357    17B2u    4.620357
      13B2g    4.620420    13B3g    4.620420    27Ag     4.621982
       8B1g    4.622037    18B2u    4.633477    18B3u    4.633477
      25B1u    4.641306     7Au     4.641363    14B2g    4.661508
      14B3g    4.661509    19B3u    4.718597    19B2u    4.718597
      28Ag     4.781309    26B1u    4.927572    20B3u    5.422872
      20B2u    5.422873    27B1u    5.423435     8Au     5.423537
      15B2g    5.423579    15B3g    5.423579    29Ag     5.423779
       9B1g    5.423881    21B3u    5.425446    21B2u    5.425446
      16B2g    5.425446    16B3g    5.425446    30Ag     5.425699
      28B1u    5.427145    31Ag     5.427145    29B1u    5.427179
      10B1g    5.427354     9Au     5.427354    32Ag     5.438113
      11B1g    5.438281    17B2g    5.440036    17B3g    5.440036
      18B2g    5.440958    18B3g    5.440958    33Ag     5.443887
      12B1g    5.444185    34Ag     5.457087    35Ag    32.799475
      30B1u   32.947681    36Ag    33.329953    37Ag   110.558512
      31B1u  110.604092    38Ag   110.732565

    Final Occupation by Irrep:
             Ag   B1g   B2g   B3g    Au   B1u   B2u   B3u
    DOCC [     8,    2,    3,    3,    1,    5,    3,    3 ]
    SOCC [     0,    0,    0,    0,    0,    1,    0,    0 ]

  @DF-UKS Final Energy:  -440.12845085444951

   => Energetics <=

    Nuclear Repulsion Energy =            184.2146722314999465
    One-Electron Energy =               -1150.2888845852548911
    Two-Electron Energy =                 549.9124297842105307
    DFT Exchange-Correlation Energy =     -23.9665404849052770
    Empirical Dispersion Energy =          -0.0001278000000000
    VV10 Nonlocal Energy =                  0.0000000000000000
    Total Energy =                       -440.1284508544497385

  UHF NO Occupations:
  HONO-2 :    5B1u 1.9999515
  HONO-1 :    8 Ag 1.9863301
  HONO-0 :    6B1u 1.0000000
  LUNO+0 :    9 Ag 0.0136699
  LUNO+1 :    7B1u 0.0000485
  LUNO+2 :    4B3g 0.0000468
  LUNO+3 :    4B2g 0.0000468

Computation Completed

Properties will be evaluated at   0.000000,   0.000000,   0.000000 [a0]

Properties computed using the SCF density matrix

  Nuclear Dipole Moment: [e a0]
     X:     0.0000      Y:     0.0000      Z:     0.0000

  Electronic Dipole Moment: [e a0]
     X:     0.0000      Y:     0.0000      Z:     0.0000

  Dipole Moment: [e a0]
     X:     0.0000      Y:     0.0000      Z:     0.0000     Total:     0.0000

  Dipole Moment: [D]
     X:     0.0000      Y:     0.0000      Z:     0.0000     Total:     0.0000

*** tstop() called on bp1-compute00157.data.bp.acrc.priv at Thu Oct 28 15:28:36 2021
Module time:
	user time   =     256.72 seconds =       4.28 minutes
	system time =      14.68 seconds =       0.24 minutes
	total time  =         16 seconds =       0.27 minutes
Total time:
	user time   =     256.72 seconds =       4.28 minutes
	system time =      14.68 seconds =       0.24 minutes
	total time  =         16 seconds =       0.27 minutes

    Psi4 stopped on: Thursday, 28 October 2021 03:28PM
    Psi4 wall time for execution: 0:00:15.45

*** Psi4 exiting successfully. Buy a developer a beer!
