                               Psi4 1.3.2 release

  ==> Input File <==

--------------------------------------------------------------------------
memory 144 GB

molecule {
0 2
Ag       0.000000    1.533951   -0.000000
Ag       1.328441   -0.766976    0.000000
Ag      -1.328441   -0.766976   -0.000000
 }

set reference uks
set basis Def2-TZVPPD

energy("MN15-D3BJ")
--------------------------------------------------------------------------

    Molecular point group: c2v

    Geometry (in Angstrom), charge = 0, multiplicity = 2:

       Center              X                  Y                   Z               Mass
    ------------   -----------------  -----------------  -----------------  -----------------
         AG           0.000000000000    -0.000000000000     1.533951333333   106.905091600000
         AG           1.328441000000     0.000000000000    -0.766975666667   106.905091600000
         AG          -1.328441000000    -0.000000000000    -0.766975666667   106.905091600000

  Charge       = 0
  Multiplicity = 2
  Basis Set: DEF2-TZVPPD
    Blend: DEF2-TZVPPD
  Basis Set: (DEF2-TZVPPD AUX)
    Blend: DEF2-TZVPP-JKFIT

    Orbital Energies [Eh]
    ---------------------

    Alpha Occupied:

       1A1    -3.665555     2A1    -3.645828     1B1    -3.645426
       3A1    -2.317431     1B2    -2.314922     2B1    -2.314635
       4A1    -2.298424     3B1    -2.294972     5A1    -2.294755
       4B1    -2.293161     2B2    -2.293026     1A2    -2.292639
       6A1    -0.429248     5B1    -0.416421     3B2    -0.409711
       7A1    -0.406544     2A2    -0.395936     8A1    -0.394313
       4B2    -0.383857     9A1    -0.370166    10A1    -0.365639
       5B2    -0.363942     3A2    -0.362368     6B1    -0.361496
       4A2    -0.354514     7B1    -0.354408     8B1    -0.340175
      11A1    -0.288093     9B1    -0.168695

    Alpha Virtual:

      12A1    -0.095211     6B2    -0.028545    13A1    -0.004478
      10B1     0.009232    14A1     0.019342     5A2     0.052047
       7B2     0.062992    11B1     0.105943    15A1     0.116443
      12B1     0.117214    16A1     0.145400    17A1     0.195289
      13B1     0.200128    18A1     0.204769     8B2     0.206295
      14B1     0.218285    19A1     0.224282     9B2     0.265377
       6A2     0.268011    15B1     0.336720    20A1     0.386567
      21A1     0.393809    16B1     0.396576     7A2     0.420114
      10B2     0.424661    11B2     0.439837    22A1     0.527488
      17B1     0.530601     8A2     0.572169    23A1     0.597139
      12B2     0.624953     9A2     0.630629    18B1     0.635109
      24A1     0.637217    25A1     0.711240    19B1     0.715230
      20B1     0.767180    21B1     1.470749    26A1     1.472058
      27A1     1.507531    28A1     1.517304    13B2     1.541840
      10A2     1.544361    14B2     1.554169    22B1     1.568880
      15B2     1.572226    29A1     1.579535    16B2     1.590920
      23B1     1.595071    11A2     1.597482    17B2     1.598910
      12A2     1.609070    30A1     1.621317    24B1     1.623694
      31A1     1.633866    13A2     1.640071    18B2     1.640138
      25B1     1.644416    32A1     1.683885    26B1     1.689088
      27B1     1.692862    33A1     1.720417    19B2     1.730934
      14A2     1.737692    28B1     1.764411    34A1     1.766459
      29B1     1.909220    35A1     1.948365    36A1     2.038044
      15A2     2.044231    20B2     2.053119    37A1     2.079457
      21B2     2.079950    30B1     2.082815    16A2     2.099694
      31B1     2.107837    38A1     2.108228    22B2     2.120331
      17A2     2.127765    39A1     2.208559    32B1     2.213623
      33B1     2.238252    40A1     2.344111    41A1     2.495508
      34B1     2.501166    42A1     4.555996    35B1     4.570947
      43A1     4.571656    23B2     4.577751    18A2     4.581098
      24B2     4.590018    44A1     4.593764    25B2     4.601319
      36B1     4.602623    45A1     4.616119    26B2     4.619326
      19A2     4.625388    37B1     4.627213    20A2     4.663156
      46A1     4.679946    27B2     4.684105    38B1     4.689453
      21A2     4.689875    47A1     4.835278    39B1     4.836018
      40B1     4.853008    48A1     5.405274    28B2     5.405596
      22A2     5.406904    29B2     5.407877    49A1     5.408688
      41B1     5.408722    50A1     5.410094    23A2     5.410174
      42B1     5.410260    51A1     5.426097    43B1     5.427201
      24A2     5.427228    30B2     5.427315    44B1     5.427510
      25A2     5.428005    52A1     5.428343    31B2     5.428518
      53A1     5.429429    32B2     5.429542    26A2     5.430501
      45B1     5.430608    33B2     5.431088    54A1     5.431211
      46B1     5.431378    27A2     5.431531    55A1     5.436415
      47B1     5.436719    56A1    32.816293    57A1    33.144250
      48B1    33.153879    58A1   110.557865    59A1   110.659168
      49B1   110.670061

    Beta Occupied:

       1A1    -3.665569     2A1    -3.645044     1B1    -3.644640
       3A1    -2.317049     1B2    -2.314863     2B1    -2.314506
       4A1    -2.296391     5A1    -2.294890     3B1    -2.294838
       2B2    -2.292819     1A2    -2.292400     4B1    -2.291111
       6A1    -0.427877     5B1    -0.414676     3B2    -0.409245
       7A1    -0.404111     2A2    -0.395326     8A1    -0.391958
       4B2    -0.381572     9A1    -0.368669    10A1    -0.364302
       5B2    -0.362489     3A2    -0.360748     6B1    -0.358928
       7B1    -0.350587     4A2    -0.350562     8B1    -0.335990
      11A1    -0.276925

    Beta Virtual:

      12A1    -0.087747     9B1    -0.066748     6B2    -0.021461
      13A1     0.022313    10B1     0.034741    14A1     0.044511
       7B2     0.068181     5A2     0.082078    15A1     0.128293
      11B1     0.135429    12B1     0.151427    16A1     0.151762
      17A1     0.203196     8B2     0.213022    18A1     0.213767
      13B1     0.220791    14B1     0.235449    19A1     0.239529
       9B2     0.266438     6A2     0.278325    15B1     0.340086
      20A1     0.388823    21A1     0.392307    16B1     0.398890
       7A2     0.421605    10B2     0.424332    11B2     0.436195
      22A1     0.525898    17B1     0.534026     8A2     0.570417
      23A1     0.592263    12B2     0.620491     9A2     0.627383
      24A1     0.634747    18B1     0.635001    25A1     0.707013
      19B1     0.711430    20B1     0.765493    21B1     1.473556
      26A1     1.475185    27A1     1.512648    28A1     1.521658
      13B2     1.543736    10A2     1.546692    14B2     1.561173
      22B1     1.570137    15B2     1.573252    29A1     1.584569
      16B2     1.596430    17B2     1.599555    23B1     1.599578
      11A2     1.603230    12A2     1.614311    30A1     1.624022
      24B1     1.629127    31A1     1.635037    18B2     1.642117
      13A2     1.644535    25B1     1.651020    32A1     1.686103
      26B1     1.693825    27B1     1.698694    33A1     1.724758
      19B2     1.732239    14A2     1.741296    28B1     1.766980
      34A1     1.772641    29B1     1.912154    35A1     1.951922
      36A1     2.041688    15A2     2.045903    20B2     2.058153
      21B2     2.082289    37A1     2.082991    30B1     2.088814
      16A2     2.103602    31B1     2.112711    38A1     2.112936
      22B2     2.121912    17A2     2.133346    39A1     2.209476
      32B1     2.217292    33B1     2.241274    40A1     2.343268
      41A1     2.494997    34B1     2.504163    42A1     4.557582
      35B1     4.572446    43A1     4.573104    23B2     4.578350
      18A2     4.582095    24B2     4.592611    44A1     4.596110
      25B2     4.602050    36B1     4.603230    45A1     4.618587
      26B2     4.621686    19A2     4.628068    37B1     4.629706
      20A2     4.665005    46A1     4.681508    27B2     4.685537
      38B1     4.692736    21A2     4.692990    47A1     4.837001
      39B1     4.837927    40B1     4.856407    48A1     5.405283
      28B2     5.405502    22A2     5.406961    29B2     5.407844
      41B1     5.408701    49A1     5.408748    50A1     5.409786
      23A2     5.409829    42B1     5.410444    51A1     5.427667
      24A2     5.428063    30B2     5.428502    43B1     5.428532
      44B1     5.428650    25A2     5.428779    52A1     5.429156
      31B2     5.429793    32B2     5.429984    53A1     5.430496
      45B1     5.430656    26A2     5.430943    33B2     5.431625
      54A1     5.431755    46B1     5.432062    27A2     5.432816
      55A1     5.437381    47B1     5.438199    56A1    32.820682
      57A1    33.146468    48B1    33.160994    58A1   110.559178
      59A1   110.660051    49B1   110.672477

    Final Occupation by Irrep:
             A1    A2    B1    B2
    DOCC [    11,    4,    8,    5 ]
    SOCC [     0,    0,    1,    0 ]

  @DF-UKS Final Energy:  -440.13085493058418

   => Energetics <=

    Nuclear Repulsion Energy =            215.7035793725837323
    One-Electron Energy =               -1212.8127587619776477
    Two-Electron Energy =                 580.9514282453440046
    DFT Exchange-Correlation Energy =     -23.9729747765344108
    Empirical Dispersion Energy =          -0.0001290100000000
    VV10 Nonlocal Energy =                  0.0000000000000000
    Total Energy =                       -440.1308549305843485

  UHF NO Occupations:
  HONO-2 :    8 B1 1.9998521
  HONO-1 :   11 A1 1.9942734
  HONO-0 :    9 B1 1.0000000
  LUNO+0 :   12 A1 0.0057266
  LUNO+1 :   10 B1 0.0001479
  LUNO+2 :   13 A1 0.0001267
  LUNO+3 :    6 B2 0.0000970

Computation Completed

Properties will be evaluated at   0.000000,   0.000000,   0.000000 [a0]

Properties computed using the SCF density matrix

  Nuclear Dipole Moment: [e a0]
     X:    -0.0000      Y:    -0.0000      Z:     0.0000

  Electronic Dipole Moment: [e a0]
     X:     0.0000      Y:     0.0000      Z:     0.4547

  Dipole Moment: [e a0]
     X:    -0.0000      Y:    -0.0000      Z:     0.4547     Total:     0.4547

  Dipole Moment: [D]
     X:    -0.0000      Y:    -0.0000      Z:     1.1557     Total:     1.1557

*** tstop() called on bp1-compute00162.data.bp.acrc.priv at Thu Oct 28 15:28:28 2021
Module time:
	user time   =     282.07 seconds =       4.70 minutes
	system time =      12.48 seconds =       0.21 minutes
	total time  =         16 seconds =       0.27 minutes
Total time:
	user time   =     282.07 seconds =       4.70 minutes
	system time =      12.48 seconds =       0.21 minutes
	total time  =         16 seconds =       0.27 minutes

    Psi4 stopped on: Thursday, 28 October 2021 03:28PM
    Psi4 wall time for execution: 0:00:16.22

*** Psi4 exiting successfully. Buy a developer a beer!
