                               Psi4 1.3.2 release

  ==> Input File <==

--------------------------------------------------------------------------
memory 144 GB

molecule {
1 1
Ag       0.000000    0.000000    0.000000
Ag       0.000000    0.000000    2.629319
Ag       0.000000    0.000000   -2.629319
 }

set basis Def2-TZVPPD

energy("MN15-D3BJ")
--------------------------------------------------------------------------

    Molecular point group: d2h

    Geometry (in Angstrom), charge = 1, multiplicity = 1:

       Center              X                  Y                   Z               Mass
    ------------   -----------------  -----------------  -----------------  -----------------
         AG           0.000000000000     0.000000000000     0.000000000000   106.905091600000
         AG           0.000000000000     0.000000000000     2.629319000000   106.905091600000
         AG           0.000000000000     0.000000000000    -2.629319000000   106.905091600000

  Charge       = 1
  Multiplicity = 1
  Basis Set: DEF2-TZVPPD
    Blend: DEF2-TZVPPD
  Basis Set: (DEF2-TZVPPD AUX)
    Blend: DEF2-TZVPP-JKFIT

    Orbital Energies [Eh]
    ---------------------

    Doubly Occupied:

       1B1u   -3.846507     1Ag    -3.846503     2Ag    -3.805490
       2B1u   -2.499126     3Ag    -2.498726     1B3u   -2.496999
       1B2u   -2.496999     1B2g   -2.496984     1B3g   -2.496984
       3B1u   -2.458287     2B3u   -2.452356     2B2u   -2.452356
       4Ag    -0.608068     2B2g   -0.587241     2B3g   -0.587240
       4B1u   -0.578875     3B3u   -0.576823     3B2u   -0.576823
       5Ag    -0.573508     1B1g   -0.573495     5B1u   -0.573066
       1Au    -0.573053     6Ag    -0.525388     2B1g   -0.525371
       3B2g   -0.522750     3B3g   -0.522750     7Ag    -0.516914
       8Ag    -0.416717

  @DF-RKS Final Energy:  -439.86336934493733

   => Energetics <=

    Nuclear Repulsion Energy =            181.6373108891218351
    One-Electron Energy =               -1134.3263061469169770
    Two-Electron Energy =                 536.6650840658451216
    DFT Exchange-Correlation Energy =     -23.8393304529873156
    Empirical Dispersion Energy =          -0.0001277000000000
    VV10 Nonlocal Energy =                  0.0000000000000000
    Total Energy =                       -439.8633693449373254

  Dipole Moment: [D]
     X:     0.0000      Y:     0.0000      Z:     0.0000     Total:     0.0000

*** Psi4 exiting successfully. Buy a developer a beer!
