                               Psi4 1.4.1 release

  ==> Input File <==

--------------------------------------------------------------------------
memory 144 GB

molecule {
2 1
Ag      -0.000000   -0.000016    1.715553
Ag       0.000000   -1.617524   -0.571836
Ag       1.400774    0.808769   -0.571859
Ag      -1.400774    0.808770   -0.571858
 }

set basis Def2-TZVPPD

energy("MN15-D3BJ")
--------------------------------------------------------------------------

    Molecular point group: c1

    Geometry (in Angstrom), charge = 2, multiplicity = 1:

       Center              X                  Y                   Z               Mass
    ------------   -----------------  -----------------  -----------------  -----------------
         AG          -0.000000000000    -0.000015750000     1.715553000000   106.905091600000
         AG          -0.000000000000    -1.617523750000    -0.571836000000   106.905091600000
         AG           1.400774000000     0.808769250000    -0.571859000000   106.905091600000
         AG          -1.400774000000     0.808770250000    -0.571858000000   106.905091600000

  Charge       = 2
  Multiplicity = 1
  Basis Set: DEF2-TZVPPD
    Blend: DEF2-TZVPPD
  Basis Set: (DEF2-TZVPPD AUX)
    Blend: DEF2-UNIVERSAL-JKFIT

    Orbital Energies [Eh]
    ---------------------

    Doubly Occupied:

       1A     -4.025116     2A     -4.024735     3A     -4.024734
       4A     -4.024731     5A     -2.678315     6A     -2.676289
       7A     -2.676287     8A     -2.676286     9A     -2.675661
      10A     -2.675656    11A     -2.673982    12A     -2.673982
      13A     -2.673978    14A     -2.673356    15A     -2.673352
      16A     -2.673351    17A     -0.801951    18A     -0.781695
      19A     -0.781690    20A     -0.781689    21A     -0.774758
      22A     -0.774753    23A     -0.761313    24A     -0.761309
      25A     -0.761308    26A     -0.740464    27A     -0.740463
      28A     -0.740461    29A     -0.738489    30A     -0.738486
      31A     -0.737403    32A     -0.737402    33A     -0.737395
      34A     -0.719045    35A     -0.719037    36A     -0.719037
      37A     -0.660055

  @DF-RKS Final Energy:  -586.25134877328401

   => Energetics <=

    Nuclear Repulsion Energy =            409.1285871246527108
    One-Electron Energy =               -1831.8962566864258861
    Two-Electron Energy =                 868.2400632939423986
    DFT Exchange-Correlation Energy =     -31.7234845654532513
    Empirical Dispersion Energy =          -0.0002579400000000
    VV10 Nonlocal Energy =                  0.0000000000000000
    Total Energy =                       -586.2513487732840076

  Dipole Moment: [D]
     X:    -0.0000      Y:    -0.0001      Z:    -0.0000     Total:     0.0001

*** Psi4 exiting successfully. Buy a developer a beer!
