                               Psi4 1.4.1 release

  ==> Input File <==

--------------------------------------------------------------------------
memory 144 GB

molecule {
2 1
Ag      -0.268639    1.507918    0.000000
Ag       1.705052   -0.492854   -0.000000
Ag      -0.647170   -0.911099    1.379441
Ag      -0.647170   -0.911099   -1.379441
N       -0.647170    3.675657    0.000000
H       -0.250844    4.149729    0.817426
H       -0.250844    4.149729   -0.817426
H       -1.645581    3.906275    0.000000
 }

set basis Def2-TZVPPD

energy("MN15-D3BJ")
--------------------------------------------------------------------------

    Molecular point group: cs

    Geometry (in Angstrom), charge = 2, multiplicity = 1:

       Center              X                  Y                   Z               Mass
    ------------   -----------------  -----------------  -----------------  -----------------
         AG          -0.277549184886     1.558553668839     0.000000000000   106.905091600000
         AG           1.696141815114    -0.442218331161     0.000000000000   106.905091600000
         AG          -0.656080184886    -0.860463331161     1.379441000000   106.905091600000
         AG          -0.656080184886    -0.860463331161    -1.379441000000   106.905091600000
         N           -0.656080184886     3.726292668839     0.000000000000    14.003074004430
         H           -0.259754184886     4.200364668839     0.817426000000     1.007825032230
         H           -0.259754184886     4.200364668839    -0.817426000000     1.007825032230
         H           -1.654491184886     3.956910668839     0.000000000000     1.007825032230

  Charge       = 2
  Multiplicity = 1
  Basis Set: DEF2-TZVPPD
    Blend: DEF2-TZVPPD
  Basis Set: (DEF2-TZVPPD AUX)
    Blend: DEF2-UNIVERSAL-JKFIT

    Orbital Energies [Eh]
    ---------------------

    Doubly Occupied:

       1Ap   -14.419326     2Ap    -3.996411     3Ap    -3.996053
       1App   -3.996049     4Ap    -3.983514     5Ap    -2.649261
       2App   -2.647545     6Ap    -2.647536     7Ap    -2.646392
       8Ap    -2.645920     3App   -2.645918     4App   -2.645206
       5App   -2.644497     9Ap    -2.644494     6App   -2.633072
      10Ap    -2.633069    11Ap    -2.630855    12Ap    -1.221904
       7App   -0.824978    13Ap    -0.824972    14Ap    -0.779173
      15Ap    -0.757302     8App   -0.750682    16Ap    -0.750668
       9App   -0.741566    17Ap    -0.741560    18Ap    -0.734331
      19Ap    -0.732436    10App   -0.727726    20Ap    -0.727721
      11App   -0.710850    12App   -0.709650    21Ap    -0.709649
      22Ap    -0.707852    13App   -0.707848    14App   -0.700354
      23Ap    -0.700335    15App   -0.688585    24Ap    -0.681971
      16App   -0.681962    25Ap    -0.647076    26Ap    -0.626767

  @DF-RKS Final Energy:  -642.84733835438294

   => Energetics <=

    Nuclear Repulsion Energy =            527.7252358253977036
    One-Electron Energy =               -2144.0653126957404311
    Two-Electron Energy =                1009.8061980252512058
    DFT Exchange-Correlation Energy =     -36.3129600992914021
    Empirical Dispersion Energy =          -0.0004994100000000
    VV10 Nonlocal Energy =                  0.0000000000000000
    Total Energy =                       -642.8473383543829414

  Dipole Moment: [D]
     X:    -0.8101      Y:     4.6267      Z:    -0.0000     Total:     4.6970

*** Psi4 exiting successfully. Buy a developer a beer!
