                               Psi4 1.4.1 release

  ==> Input File <==

--------------------------------------------------------------------------
memory 144 GB

molecule {
2 1
Ag       0.000000    1.593354   -0.403942
Ag       1.379885   -0.796677   -0.403942
Ag      -1.379885   -0.796677   -0.403942
Ag       0.000000    0.000000    1.894943
N        0.000000    0.000000   -3.082630
H        0.808649    0.466874   -3.509356
H       -0.000000   -0.933748   -3.509356
H       -0.808649    0.466874   -3.509356
 }

set basis Def2-TZVPPD

energy("MN15-D3BJ")
--------------------------------------------------------------------------

    Molecular point group: cs

    Geometry (in Angstrom), charge = 2, multiplicity = 1:

       Center              X                  Y                   Z               Mass
    ------------   -----------------  -----------------  -----------------  -----------------
         AG          -1.593354000000     0.447239138241     0.000000000000   106.905091600000
         AG           0.796677000000     0.447239138241     1.379885000000   106.905091600000
         AG           0.796677000000     0.447239138241    -1.379885000000   106.905091600000
         AG           0.000000000000    -1.851645861759     0.000000000000   106.905091600000
         N            0.000000000000     3.125927138241     0.000000000000    14.003074004430
         H           -0.466874000000     3.552653138241     0.808649000000     1.007825032230
         H            0.933748000000     3.552653138241     0.000000000000     1.007825032230
         H           -0.466874000000     3.552653138241    -0.808649000000     1.007825032230

  Charge       = 2
  Multiplicity = 1
  Basis Set: DEF2-TZVPPD
    Blend: DEF2-TZVPPD
  Basis Set: (DEF2-TZVPPD AUX)
    Blend: DEF2-UNIVERSAL-JKFIT

    Orbital Energies [Eh]
    ---------------------

    Doubly Occupied:

       1Ap   -14.396474     2Ap    -4.000850     3Ap    -4.000487
       1App   -4.000481     4Ap    -3.994006     5Ap    -2.654128
       2App   -2.652652     6Ap    -2.652647     7Ap    -2.650476
       3App   -2.650400     8Ap    -2.650244     4App   -2.650244
       9Ap    -2.648947     5App   -2.648945    10Ap    -2.643863
       6App   -2.643530    11Ap    -2.643528    12Ap    -1.203775
       7App   -0.804188    13Ap    -0.804185    14Ap    -0.779163
      15Ap    -0.760905     8App   -0.757408    16Ap    -0.757404
       9App   -0.749670    17Ap    -0.749666    18Ap    -0.740082
      10App   -0.734389    19Ap    -0.734382    11App   -0.715688
      20Ap    -0.714751    12App   -0.714748    21Ap    -0.712680
      13App   -0.712672    14App   -0.710671    22Ap    -0.710666
      23Ap    -0.710328    15App   -0.693677    16App   -0.691852
      24Ap    -0.691850    25Ap    -0.671027    26Ap    -0.605480

  @DF-RKS Final Energy:  -642.80669834666742

   => Energetics <=

    Nuclear Repulsion Energy =            537.0150910960845749
    One-Electron Energy =               -2162.3175947959261975
    Two-Electron Energy =                1018.8098575943671449
    DFT Exchange-Correlation Energy =     -36.3135373711929361
    Empirical Dispersion Energy =          -0.0005148700000000
    VV10 Nonlocal Energy =                  0.0000000000000000
    Total Energy =                       -642.8066983466673037

  Dipole Moment: [D]
     X:    -0.0001      Y:     4.0989      Z:    -0.0000     Total:     4.0989

*** Psi4 exiting successfully. Buy a developer a beer!
