                               Psi4 1.4.1 release

  ==> Input File <==

--------------------------------------------------------------------------
memory 144 GB

molecule {
2 2
Ag       0.000000    0.000000    1.733523
Ag       0.000000    1.616553   -0.602470
Ag      -1.399976   -0.808277   -0.602470
Ag       1.399976   -0.808277   -0.602470
H        0.000000    0.000000    3.472645
 }

set reference uks
set basis Def2-TZVPPD

energy("MN15-D3BJ")
--------------------------------------------------------------------------

    Molecular point group: cs

    Geometry (in Angstrom), charge = 2, multiplicity = 2:

       Center              X                  Y                   Z               Mass
    ------------   -----------------  -----------------  -----------------  -----------------
         AG          -0.000000249412    -1.743786155882     0.000000000000   106.905091600000
         AG          -1.616553249412     0.592206844118     0.000000000000   106.905091600000
         AG           0.808276750588     0.592206844118    -1.399976000000   106.905091600000
         AG           0.808276750588     0.592206844118     1.399976000000   106.905091600000
         H           -0.000000249412    -3.482908155882     0.000000000000     1.007825032230

  Charge       = 2
  Multiplicity = 2
  Basis Set: DEF2-TZVPPD
    Blend: DEF2-TZVPPD
  Basis Set: (DEF2-TZVPPD AUX)
    Blend: DEF2-UNIVERSAL-JKFIT

    Orbital Energies [Eh]
    ---------------------

    Alpha Occupied:

       1Ap    -4.039376     2Ap    -4.023764     3Ap    -4.023485
       1App   -4.023463     4Ap    -2.691322     2App   -2.687229
       5Ap    -2.687227     6Ap    -2.676024     3App   -2.674690
       7Ap    -2.674676     8Ap    -2.673933     9Ap    -2.673718
       4App   -2.673700     5App   -2.672662    10Ap    -2.672041
       6App   -2.672035    11Ap    -0.827986     7App   -0.785226
      12Ap    -0.785221    13Ap    -0.785028     8App   -0.775664
      14Ap    -0.775658    15Ap    -0.769229     9App   -0.763728
      16Ap    -0.763717    17Ap    -0.760199    10App   -0.745681
      18Ap    -0.745674    11App   -0.739178    19Ap    -0.738085
      12App   -0.738076    20Ap    -0.736149    13App   -0.736134
      21Ap    -0.724126    14App   -0.724119    15App   -0.717468
      22Ap    -0.681112    23Ap    -0.648858

    Alpha Virtual:

      16App   -0.418925    24Ap    -0.418924    25Ap    -0.387928
      26Ap    -0.288224    17App   -0.288223    27Ap    -0.285226
      18App   -0.276101    28Ap    -0.276096    29Ap    -0.206571
      30Ap    -0.161950    19App   -0.161949    20App   -0.142930
      31Ap    -0.138936    21App   -0.138935    32Ap    -0.138930
      33Ap    -0.100142    34Ap    -0.080164    35Ap    -0.067350
      36Ap    -0.053769    22App   -0.053768    23App   -0.050947
      37Ap    -0.050941    24App   -0.031055    38Ap    -0.031054
      39Ap    -0.017881    25App   -0.017880    40Ap    -0.012242
      41Ap     0.025882    26App    0.025884    27App    0.030660
      28App    0.048154    42Ap     0.048175    43Ap     0.053158
      44Ap     0.083759    45Ap     0.105407    29App    0.105409
      46Ap     0.135411    47Ap     0.199469    48Ap     0.203300
      30App    0.203303    31App    0.230313    49Ap     0.237165
      50Ap     0.242609    32App    0.242614    33App    0.314042
      51Ap     0.314062    34App    0.330734    52Ap     0.330736
      53Ap     0.339119    35App    0.369109    54Ap     0.369158
      36App    0.411396    55Ap     0.411397    37App    0.427555
      56Ap     0.437161    38App    0.659002    57Ap     0.659004
      58Ap     0.749480    59Ap     1.149236    39App    1.149241
      60Ap     1.176170    40App    1.176176    61Ap     1.178984
      62Ap     1.182940    63Ap     1.192037    41App    1.192039
      42App    1.199458    64Ap     1.202491    65Ap     1.206619
      43App    1.206620    66Ap     1.213484    44App    1.213848
      67Ap     1.213864    68Ap     1.219772    45App    1.219815
      46App    1.223346    69Ap     1.226793    70Ap     1.243929
      47App    1.243935    48App    1.245505    71Ap     1.249730
      49App    1.249752    72Ap     1.280292    50App    1.280304
      51App    1.293315    73Ap     1.310694    52App    1.310699
      74Ap     1.328970    75Ap     1.389803    53App    1.391585
      76Ap     1.391588    54App    1.405152    77Ap     1.405167
      78Ap     1.435925    79Ap     1.531094    55App    1.531096
      56App    1.536061    80Ap     1.587811    81Ap     1.641784
      82Ap     1.710171    57App    1.710174    83Ap     1.711651
      84Ap     1.730651    58App    1.730657    59App    1.737643
      60App    1.743861    85Ap     1.743900    86Ap     1.802719
      61App    1.802736    62App    1.819124    87Ap     1.819134
      88Ap     1.821648    89Ap     1.823340    63App    1.823347
      64App    1.824945    90Ap     1.825810    91Ap     1.892842
      65App    1.892860    92Ap     2.102797    93Ap     2.205474
      66App    2.316129    94Ap     2.316255    95Ap     2.406901
      67App    2.691319    96Ap     2.691378    97Ap     2.842189
      68App    2.842200    98Ap     3.229899    99Ap     3.321452
      69App    3.321453   100Ap     3.780089   101Ap     4.208136
      70App    4.208167   102Ap     4.221377    71App    4.229844
     103Ap     4.229863   104Ap     4.233019    72App    4.234172
     105Ap     4.239605    73App    4.239654   106Ap     4.240683
      74App    4.249837    75App    4.257324   107Ap     4.257345
     108Ap     4.274748    76App    4.275598   109Ap     4.284101
      77App    4.284109   110Ap     4.290356    78App    4.290376
      79App    4.302843   111Ap     4.302854   112Ap     4.414751
     113Ap     4.419203    80App    4.419233    81App    4.420337
     114Ap     4.451998    82App    4.452032   115Ap     4.634451
      83App    5.039300   116Ap     5.039338   117Ap     5.040193
      84App    5.040425   118Ap     5.040463    85App    5.040637
      86App    5.047325   119Ap     5.047375   120Ap     5.047501
      87App    5.047531    88App    5.047603   121Ap     5.047954
     122Ap     5.048410    89App    5.048556   123Ap     5.048627
      90App    5.048673    91App    5.048958   124Ap     5.049037
      92App    5.049282    93App    5.049685   125Ap     5.049785
     126Ap     5.050240   127Ap     5.050325    94App    5.050328
     128Ap     5.050490   129Ap     5.050814    95App    5.050866
      96App    5.051040    97App    5.051375   130Ap     5.051449
      98App    5.058161   131Ap     5.058176   132Ap     5.064344
     133Ap     5.093941    99App    5.094046   134Ap     5.352154
     135Ap    32.487431   136Ap    32.849556   100App   32.849577
     137Ap    32.898619   138Ap   110.198715   139Ap   110.315662
     101App  110.315691   140Ap   110.320739

    Beta Occupied:

       1Ap    -4.038140     2Ap    -4.023694     3Ap    -4.023415
       1App   -4.023394     4Ap    -2.692699     2App   -2.683744
       5Ap    -2.683741     6Ap    -2.676274     3App   -2.674698
       7Ap    -2.674686     8Ap    -2.673539     9Ap    -2.673320
       4App   -2.673302     5App   -2.672625    10Ap    -2.672209
       6App   -2.672204    11Ap    -0.807745     7App   -0.783587
      12Ap    -0.783582    13Ap    -0.781795     8App   -0.774790
      14Ap    -0.774785     9App   -0.762147    15Ap    -0.762136
      16Ap    -0.759666    17Ap    -0.754971    10App   -0.743934
      18Ap    -0.743927    11App   -0.738886    19Ap    -0.737868
      12App   -0.737859    20Ap    -0.735936    13App   -0.735920
      21Ap    -0.722686    14App   -0.722680    15App   -0.717696
      22Ap    -0.656918

    Beta Virtual:

      23Ap    -0.480614    24Ap    -0.417821    16App   -0.417820
      25Ap    -0.363790    26Ap    -0.283913    27Ap    -0.283400
      17App   -0.283399    18App   -0.273278    28Ap    -0.273276
      29Ap    -0.175993    30Ap    -0.148091    19App   -0.148090
      20App   -0.142878    21App   -0.138480    31Ap    -0.138477
      32Ap    -0.127681    33Ap    -0.084681    34Ap    -0.071937
      35Ap    -0.060855    22App   -0.051801    36Ap    -0.051801
      23App   -0.048935    37Ap    -0.048932    24App   -0.030143
      38Ap    -0.030141    39Ap    -0.008392    25App    0.011376
      40Ap     0.011376    26App    0.030726    27App    0.032585
      41Ap     0.032586    28App    0.048927    42Ap     0.048939
      43Ap     0.064551    44Ap     0.102517    45Ap     0.116975
      29App    0.116975    46Ap     0.159887    30App    0.207334
      47Ap     0.207336    31App    0.230083    48Ap     0.235788
      49Ap     0.246743    32App    0.246748    50Ap     0.277534
      33App    0.315597    51Ap     0.315613    34App    0.334437
      52Ap     0.334441    53Ap     0.342359    35App    0.372941
      54Ap     0.372968    55Ap     0.422141    36App    0.422141
      37App    0.427310    56Ap     0.453877    57Ap     0.736765
      38App    0.736767    58Ap     0.815299    59Ap     1.152049
      39App    1.152054    60Ap     1.178325    40App    1.178330
      61Ap     1.180226    62Ap     1.183054    41App    1.195015
      63Ap     1.195020    42App    1.203804    64Ap     1.205383
      65Ap     1.211315    43App    1.211318    44App    1.215399
      66Ap     1.215414    67Ap     1.217776    68Ap     1.220706
      45App    1.220747    46App    1.225329    69Ap     1.227928
      70Ap     1.244633    47App    1.244641    48App    1.246531
      71Ap     1.259302    49App    1.259322    72Ap     1.284827
      50App    1.284844    51App    1.293375    73Ap     1.314332
      52App    1.314336    74Ap     1.336210    53App    1.395294
      75Ap     1.395295    76Ap     1.399496    54App    1.406797
      77Ap     1.406805    78Ap     1.476725    79Ap     1.534912
      55App    1.534916    56App    1.536502    80Ap     1.598201
      81Ap     1.654154    57App    1.712933    82Ap     1.712950
      83Ap     1.714254    58App    1.734156    84Ap     1.734181
      59App    1.738037    60App    1.744927    85Ap     1.744966
      86Ap     1.804093    61App    1.804108    62App    1.819521
      87Ap     1.819535    88Ap     1.824802    63App    1.824808
      64App    1.825040    89Ap     1.830216    90Ap     1.861905
      91Ap     1.897545    65App    1.897558    92Ap     2.194011
      93Ap     2.293811    66App    2.319312    94Ap     2.319412
      95Ap     2.479240    96Ap     3.135151    67App    3.135168
      97Ap     3.169890    68App    3.170561    98Ap     3.464906
      99Ap     3.764485    69App    3.764496   100Ap     4.162920
     101Ap     4.210196    70App    4.210230   102Ap     4.221464
      71App    4.230568   103Ap     4.230590   104Ap     4.232852
      72App    4.233814   105Ap     4.240036    73App    4.240089
     106Ap     4.241743    74App    4.249914    75App    4.260478
     107Ap     4.260499    76App    4.275681   108Ap     4.280029
     109Ap     4.287701    77App    4.287704    78App    4.291709
     110Ap     4.291729   111Ap     4.309863    79App    4.309881
     112Ap     4.416915    80App    4.420462   113Ap     4.421166
      81App    4.421189   114Ap     4.475310    82App    4.475358
     115Ap     4.682509    83App    5.039497   116Ap     5.039529
     117Ap     5.040381    84App    5.040756   118Ap     5.043684
      85App    5.043693    86App    5.047286   119Ap     5.047365
      87App    5.047373   120Ap     5.047519    88App    5.047634
     121Ap     5.047854   122Ap     5.048415    89App    5.048442
     123Ap     5.048586    90App    5.048701    91App    5.048850
     124Ap     5.048912    92App    5.049516    93App    5.049803
     125Ap     5.049882   126Ap     5.050339    94App    5.050380
     127Ap     5.050446   128Ap     5.050701   129Ap     5.050999
      95App    5.051034    96App    5.051150    97App    5.051598
     130Ap     5.051708    98App    5.058455   131Ap     5.058467
     132Ap     5.064544   133Ap     5.106413    99App    5.106520
     134Ap     5.415364   135Ap    32.488937   136Ap    32.850297
     100App   32.850319   137Ap    32.903293   138Ap   110.198984
     139Ap   110.315886   101App  110.315915   140Ap   110.321174

    Final Occupation by Irrep:
             Ap   App
    DOCC [    22,   15 ]
    SOCC [     1,    0 ]

  @DF-UKS Final Energy:  -586.77019234559862

   => Energetics <=

    Nuclear Repulsion Energy =            419.0822019403161676
    One-Electron Energy =               -1851.8445101725128552
    Two-Electron Energy =                 877.8877010996268382
    DFT Exchange-Correlation Energy =     -31.8952765930287825
    Empirical Dispersion Energy =          -0.0003086200000000
    VV10 Nonlocal Energy =                  0.0000000000000000
    Total Energy =                       -586.7701923455986162

  UHF NO Occupations:
  HONO-2 :   21 Ap 1.9997189
  HONO-1 :   22 Ap 1.9967658
  HONO-0 :   23 Ap 1.0000000
  LUNO+0 :   24 Ap 0.0032342
  LUNO+1 :   25 Ap 0.0002811
  LUNO+2 :   26 Ap 0.0000848
  LUNO+3 :   16App 0.0000848

Computation Completed

Properties will be evaluated at   0.000000,   0.000000,   0.000000 [a0]

Properties computed using the SCF density matrix

  Nuclear Dipole Moment: [e a0]
     X:    -0.0000      Y:    -5.4028      Z:     0.0000

  Electronic Dipole Moment: [e a0]
     X:     0.0002      Y:     5.2474      Z:     0.0000

  Dipole Moment: [e a0]
     X:     0.0002      Y:    -0.1555      Z:     0.0000     Total:     0.1555

  Dipole Moment: [D]
     X:     0.0004      Y:    -0.3952      Z:     0.0000     Total:     0.3952

*** tstop() called on compute495.bc4.acrc.priv at Tue Nov  2 11:09:52 2021
Module time:
	user time   =     970.58 seconds =      16.18 minutes
	system time =      41.54 seconds =       0.69 minutes
	total time  =         50 seconds =       0.83 minutes
Total time:
	user time   =     970.58 seconds =      16.18 minutes
	system time =      41.54 seconds =       0.69 minutes
	total time  =         50 seconds =       0.83 minutes

    Psi4 stopped on: Tuesday, 02 November 2021 11:09AM
    Psi4 wall time for execution: 0:00:50.51

*** Psi4 exiting successfully. Buy a developer a beer!
