                               Psi4 1.4.1 release

  ==> Input File <==

--------------------------------------------------------------------------
memory 144 GB

molecule {
2 2
Ag      -0.000000    1.374598    1.108828
Ag      -0.000000   -1.374598    1.108828
Ag      -1.374988    0.000000   -1.132689
Ag       1.374988   -0.000000   -1.132689
H        0.000000    0.000000    2.242952
 }

set reference uks
set basis Def2-TZVPPD

energy("MN15-D3BJ")
--------------------------------------------------------------------------

    Molecular point group: c2v

    Geometry (in Angstrom), charge = 2, multiplicity = 2:

       Center              X                  Y                   Z               Mass
    ------------   -----------------  -----------------  -----------------  -----------------
         AG          -0.000000000000     1.374598000000     1.115456639148   106.905091600000
         AG           0.000000000000    -1.374598000000     1.115456639148   106.905091600000
         AG          -1.374988000000    -0.000000000000    -1.126060360852   106.905091600000
         AG           1.374988000000     0.000000000000    -1.126060360852   106.905091600000
         H           -0.000000000000     0.000000000000     2.249580639148     1.007825032230

  Charge       = 2
  Multiplicity = 2
  Basis Set: DEF2-TZVPPD
    Blend: DEF2-TZVPPD
  Basis Set: (DEF2-TZVPPD AUX)
    Blend: DEF2-UNIVERSAL-JKFIT

    Orbital Energies [Eh]
    ---------------------

    Alpha Occupied:

       1A1    -4.037972     1B2    -4.037723     2A1    -4.023341
       1B1    -4.023089     3A1    -2.691314     2B2    -2.689002
       4A1    -2.688389     3B2    -2.686667     2B1    -2.686179
       1A2    -2.685848     5A1    -2.674966     6A1    -2.674018
       3B1    -2.673790     4B2    -2.673422     2A2    -2.673158
       4B1    -2.671260     7A1    -0.843417     8A1    -0.800880
       9A1    -0.784691     5B1    -0.784047     5B2    -0.780559
      10A1    -0.774990     3A2    -0.771493     6B1    -0.769267
       6B2    -0.761871     7B2    -0.753098    11A1    -0.751303
       4A2    -0.748956    12A1    -0.748234     8B2    -0.747465
       7B1    -0.743860     5A2    -0.737350     8B1    -0.735733
       9B2    -0.732723     6A2    -0.729613     9B1    -0.722593
      13A1    -0.700764    14A1    -0.597457

    Alpha Virtual:

      10B2    -0.424053    10B1    -0.419927    15A1    -0.366703
      11B2    -0.305589    16A1    -0.296732    11B1    -0.296496
      17A1    -0.284679     7A2    -0.270581    12B2    -0.166004
      18A1    -0.163615    12B1    -0.162931     8A2    -0.156755
      19A1    -0.144579    13B2    -0.142913    13B1    -0.138603
      20A1    -0.110685    21A1    -0.079793    22A1    -0.072478
      14B1    -0.067360    14B2    -0.063825    15B1    -0.054375
      23A1    -0.052468     9A2    -0.048293    15B2    -0.043742
      24A1    -0.017928    16B1    -0.010823    16B2     0.002318
      10A2     0.022100    25A1     0.023295    17B1     0.029814
      17B2     0.037612    18B1     0.055733    18B2     0.063266
      26A1     0.073642    27A1     0.111927    19B1     0.124278
      19B2     0.140821    11A2     0.170506    28A1     0.211662
      29A1     0.214991    12A2     0.235113    30A1     0.268591
      20B2     0.270400    20B1     0.277077    31A1     0.309823
      13A2     0.314230    21B1     0.316154    21B2     0.326577
      32A1     0.329327    22B1     0.374731    22B2     0.384892
      14A2     0.402477    23B2     0.412010    23B1     0.415073
      33A1     0.431707    24B1     0.559692    34A1     0.694388
      24B2     0.711986    35A1     1.122992    36A1     1.151161
      15A2     1.169263    25B2     1.178179    25B1     1.182267
      16A2     1.182825    37A1     1.186169    26B1     1.186342
      26B2     1.187068    38A1     1.201641    27B2     1.202574
      39A1     1.203310    17A2     1.209997    40A1     1.210378
      18A2     1.215861    27B1     1.216432    28B1     1.220122
      41A1     1.221036    28B2     1.221597    29B2     1.225247
      29B1     1.235436    19A2     1.241367    20A2     1.250932
      30B2     1.280798    30B1     1.288308    31B1     1.292623
      31B2     1.297171    32B1     1.312003    42A1     1.332735
      43A1     1.371657    21A2     1.377878    32B2     1.387434
      33B1     1.391092    44A1     1.392984    45A1     1.407912
      22A2     1.483661    33B2     1.500481    46A1     1.506418
      34B1     1.534467    34B2     1.612596    47A1     1.631738
      35B2     1.714188    23A2     1.714590    48A1     1.716063
      35B1     1.721864    24A2     1.737908    49A1     1.757680
      36B2     1.768277    50A1     1.772829    36B1     1.783710
      37B2     1.789288    25A2     1.793215    51A1     1.799518
      37B1     1.805903    38B2     1.821741    38B1     1.839403
      39B1     1.842423    26A2     1.846301    39B2     1.892572
      52A1     1.902210    53A1     2.121943    40B2     2.209579
      40B1     2.213534    54A1     2.291814    55A1     2.406682
      41B1     2.844502    27A2     2.850006    56A1     2.906938
      57A1     3.191829    41B2     3.267398    42B1     3.368269
      58A1     3.711383    42B2     3.819281    28A2     4.215584
      59A1     4.217126    43B2     4.223686    43B1     4.225488
      60A1     4.232091    61A1     4.235204    44B2     4.235709
      44B1     4.243578    29A2     4.245638    45B1     4.253594
      45B2     4.255909    62A1     4.259125    30A2     4.266502
      63A1     4.269825    46B2     4.272296    46B1     4.285323
      31A2     4.298407    64A1     4.302689    32A2     4.332042
      47B1     4.336329    33A2     4.353065    47B2     4.381362
      48B1     4.395259    48B2     4.434052    65A1     4.434556
      49B1     4.439822    49B2     4.638518    66A1     4.639260
      34A2     5.035273    50B2     5.037369    67A1     5.037928
      50B1     5.037987    68A1     5.038517    35A2     5.038628
      51B2     5.039588    51B1     5.039632    52B2     5.039904
      36A2     5.040493    69A1     5.041095    52B1     5.043234
      53B2     5.047707    37A2     5.047761    53B1     5.048067
      70A1     5.048081    71A1     5.048377    54B1     5.048560
      54B2     5.048838    38A2     5.049161    55B1     5.049281
      55B2     5.049748    39A2     5.049792    72A1     5.049803
      56B1     5.050262    73A1     5.050325    56B2     5.050380
      40A2     5.050572    74A1     5.055583    57B1     5.057014
      57B2     5.058947    41A2     5.062607    58B1     5.083663
      75A1     5.107894    76A1     5.260867    58B2     5.348668
      77A1    32.476469    59B1    32.769120    78A1    32.793280
      59B2    32.824231    79A1   110.193076    60B1   110.291095
      80A1   110.293074    60B2   110.298575

    Beta Occupied:

       1A1    -4.036802     1B2    -4.036563     2A1    -4.022956
       1B1    -4.022699     3A1    -2.688934     2B2    -2.686851
       4A1    -2.686179     2B1    -2.684922     1A2    -2.684602
       3B2    -2.684374     5A1    -2.676016     4B2    -2.673114
       2A2    -2.672913     6A1    -2.672492     3B1    -2.672429
       4B1    -2.672363     7A1    -0.823565     8A1    -0.797983
       5B1    -0.783157     9A1    -0.780245     5B2    -0.776889
      10A1    -0.771734     3A2    -0.770191     6B1    -0.767218
       6B2    -0.758095     7B2    -0.749957    11A1    -0.748379
       4A2    -0.747271    12A1    -0.746119     8B2    -0.743109
       7B1    -0.741959     5A2    -0.736629     8B1    -0.734836
       6A2    -0.728849     9B2    -0.726156     9B1    -0.721197
      13A1    -0.680629

    Beta Virtual:

      14A1    -0.483783    10B2    -0.416073    10B1    -0.412206
      15A1    -0.343221    11B1    -0.290857    11B2    -0.290296
      16A1    -0.288879    17A1    -0.275515     7A2    -0.266506
      12B2    -0.156384    12B1    -0.153909     8A2    -0.153034
      18A1    -0.152414    13B2    -0.141236    13B1    -0.136310
      19A1    -0.131380    20A1    -0.105011    21A1    -0.078693
      14B2    -0.062562    14B1    -0.061887    22A1    -0.060834
      15B1    -0.053724    23A1    -0.049900     9A2    -0.048610
      15B2    -0.040719    24A1    -0.013789    16B1    -0.006863
      16B2     0.002967    10A2     0.020423    25A1     0.026293
      17B1     0.031051    17B2     0.037287    18B1     0.059006
      18B2     0.072837    26A1     0.087179    27A1     0.122488
      19B1     0.128806    19B2     0.150168    11A2     0.173992
      28A1     0.217679    29A1     0.223404    12A2     0.235390
      30A1     0.276120    20B2     0.277394    20B1     0.278295
      13A2     0.314459    31A1     0.314750    21B1     0.319593
      21B2     0.330492    32A1     0.332093    22B1     0.377052
      22B2     0.387389    14A2     0.403444    23B2     0.414968
      23B1     0.417743    33A1     0.438766    24B1     0.586397
      34A1     0.717807    24B2     0.731893    35A1     1.126933
      36A1     1.153660    15A2     1.172089    25B2     1.181182
      25B1     1.183667    16A2     1.184561    26B1     1.187215
      37A1     1.189371    26B2     1.189671    38A1     1.205193
      27B2     1.205296    39A1     1.207469    17A2     1.211576
      40A1     1.212988    18A2     1.219007    27B1     1.220959
      28B1     1.224011    28B2     1.224044    41A1     1.225427
      29B2     1.227020    29B1     1.238184    19A2     1.242731
      20A2     1.253584    30B2     1.282287    30B1     1.289866
      31B2     1.300042    31B1     1.302978    32B1     1.313042
      42A1     1.337605    43A1     1.373868    21A2     1.380246
      33B1     1.393707    32B2     1.395329    44A1     1.396547
      45A1     1.423802    22A2     1.484371    46A1     1.515886
      33B2     1.516672    34B1     1.537206    34B2     1.616742
      47A1     1.634096    23A2     1.716550    35B2     1.719224
      48A1     1.721086    35B1     1.726016    24A2     1.740499
      49A1     1.762886    36B2     1.770535    50A1     1.773857
      36B1     1.785513    37B2     1.794523    25A2     1.794642
      51A1     1.807253    37B1     1.808551    38B2     1.829415
      38B1     1.840772    39B1     1.843429    26A2     1.848201
      39B2     1.900161    52A1     1.907217    53A1     2.130620
      40B2     2.213312    40B1     2.220488    54A1     2.300918
      55A1     2.472283    41B1     2.916512    27A2     2.939306
      56A1     2.963628    57A1     3.269810    41B2     3.288221
      42B1     3.459639    58A1     3.796342    42B2     3.915899
      28A2     4.215404    59A1     4.217494    43B2     4.224219
      43B1     4.225563    60A1     4.233148    44B2     4.235870
      61A1     4.236120    44B1     4.244828    29A2     4.246898
      45B1     4.254629    45B2     4.256772    62A1     4.258938
      30A2     4.267157    63A1     4.270936    46B2     4.274717
      46B1     4.286345    31A2     4.299469    64A1     4.306354
      32A2     4.337978    47B1     4.339847    33A2     4.353595
      47B2     4.383291    48B1     4.401611    48B2     4.435202
      49B1     4.441385    65A1     4.445809    66A1     4.650950
      49B2     4.655435    34A2     5.036326    50B1     5.037700
      67A1     5.037872    50B2     5.037948    35A2     5.038356
      68A1     5.039026    51B1     5.039471    51B2     5.039844
      52B2     5.040390    36A2     5.040772    69A1     5.041746
      52B1     5.044002    70A1     5.047761    37A2     5.047771
      53B2     5.047894    53B1     5.048091    71A1     5.048252
      38A2     5.048916    54B1     5.049311    54B2     5.049440
      55B1     5.049456    39A2     5.050308    72A1     5.050564
      55B2     5.050660    56B1     5.050823    73A1     5.051093
      40A2     5.051151    56B2     5.051683    74A1     5.055632
      57B1     5.057039    57B2     5.059490    41A2     5.065532
      58B1     5.087950    75A1     5.113852    76A1     5.270087
      58B2     5.369013    77A1    32.479538    59B1    32.774870
      78A1    32.796394    59B2    32.824616    79A1   110.193069
      60B1   110.293253    80A1   110.293509    60B2   110.296847

    Final Occupation by Irrep:
             A1    A2    B1    B2
    DOCC [    13,    6,    9,    9 ]
    SOCC [     1,    0,    0,    0 ]

  @DF-UKS Final Energy:  -586.78796032560376

   => Energetics <=

    Nuclear Repulsion Energy =            413.2776657412570103
    One-Electron Energy =               -1840.0215804509089139
    Two-Electron Energy =                 871.8632072789199583
    DFT Exchange-Correlation Energy =     -31.9069431748719552
    Empirical Dispersion Energy =          -0.0003097200000000
    VV10 Nonlocal Energy =                  0.0000000000000000
    Total Energy =                       -586.7879603256039900

  UHF NO Occupations:
  HONO-2 :    9 B1 1.9995551
  HONO-1 :   13 A1 1.9957819
  HONO-0 :   14 A1 1.0000000
  LUNO+0 :   15 A1 0.0042181
  LUNO+1 :   10 B1 0.0004449
  LUNO+2 :   10 B2 0.0004263
  LUNO+3 :   16 A1 0.0002061

Computation Completed

Properties will be evaluated at   0.000000,   0.000000,   0.000000 [a0]

Properties computed using the SCF density matrix

  Nuclear Dipole Moment: [e a0]
     X:    -0.0000      Y:    -0.0000      Z:     3.4896

  Electronic Dipole Moment: [e a0]
     X:     0.0000      Y:     0.0000      Z:    -3.7285

  Dipole Moment: [e a0]
     X:    -0.0000      Y:    -0.0000      Z:    -0.2388     Total:     0.2388

  Dipole Moment: [D]
     X:    -0.0000      Y:    -0.0000      Z:    -0.6071     Total:     0.6071

*** tstop() called on compute404.bc4.acrc.priv at Tue Nov  2 11:09:49 2021
Module time:
	user time   =     845.65 seconds =      14.09 minutes
	system time =      42.77 seconds =       0.71 minutes
	total time  =         44 seconds =       0.73 minutes
Total time:
	user time   =     845.65 seconds =      14.09 minutes
	system time =      42.77 seconds =       0.71 minutes
	total time  =         44 seconds =       0.73 minutes

    Psi4 stopped on: Tuesday, 02 November 2021 11:09AM
    Psi4 wall time for execution: 0:00:44.62

*** Psi4 exiting successfully. Buy a developer a beer!
