                               Psi4 1.4.1 release

  ==> Input File <==

--------------------------------------------------------------------------
memory 144 GB

molecule {
0 1
Ag      -1.015022   -0.433109    0.700282
Ag       0.974659   -2.209777    0.043294
Ag       1.013798    0.433158   -0.699441
Ag      -0.973435    2.209727   -0.044135
 }

set basis Def2-TZVPPD

energy("MN15-D3BJ")
--------------------------------------------------------------------------

    Molecular point group: c1

    Geometry (in Angstrom), charge = 0, multiplicity = 1:

       Center              X                  Y                   Z               Mass
    ------------   -----------------  -----------------  -----------------  -----------------
         AG          -1.015022000000    -0.433108750000     0.700282000000   106.905091600000
         AG           0.974659000000    -2.209776750000     0.043294000000   106.905091600000
         AG           1.013798000000     0.433158250000    -0.699441000000   106.905091600000
         AG          -0.973435000000     2.209727250000    -0.044135000000   106.905091600000

  Charge       = 0
  Multiplicity = 1
  Basis Set: DEF2-TZVPPD
    Blend: DEF2-TZVPPD
  Basis Set: (DEF2-TZVPPD AUX)
    Blend: DEF2-UNIVERSAL-JKFIT

    Orbital Energies [Eh]
    ---------------------

    Doubly Occupied:

       1A     -3.663335     2A     -3.662837     3A     -3.633394
       4A     -3.633341     5A     -2.317737     6A     -2.312378
       7A     -2.311856     8A     -2.311705     9A     -2.311598
      10A     -2.311059    11A     -2.283580    12A     -2.283401
      13A     -2.281959    14A     -2.281865    15A     -2.280394
      16A     -2.280344    17A     -0.429121    18A     -0.429062
      19A     -0.412939    20A     -0.406819    21A     -0.403669
      22A     -0.400817    23A     -0.389226    24A     -0.385075
      25A     -0.372700    26A     -0.371608    27A     -0.362106
      28A     -0.357075    29A     -0.356825    30A     -0.356124
      31A     -0.351451    32A     -0.351028    33A     -0.350274
      34A     -0.347958    35A     -0.344490    36A     -0.333859
      37A     -0.294677    38A     -0.203289

  @DF-RKS Final Energy:  -586.89054538228208

   => Energetics <=

    Nuclear Repulsion Energy =            390.9440573221471027
    One-Electron Energy =               -1824.1079560410084923
    Two-Electron Energy =                 878.2546643062075873
    DFT Exchange-Correlation Energy =     -31.9810544296281769
    Empirical Dispersion Energy =          -0.0002565400000000
    VV10 Nonlocal Energy =                  0.0000000000000000
    Total Energy =                       -586.8905453822820846

  Dipole Moment: [D]
     X:    -0.0038      Y:     0.0007      Z:     0.0020     Total:     0.0044

*** Psi4 exiting successfully. Buy a developer a beer!
