                               Psi4 1.4.1 release

  ==> Input File <==

--------------------------------------------------------------------------
memory 144 GB

molecule {
0 2
Au       0.000000    0.000000    0.000000
 }

set reference uks
set basis Def2-TZVPPD

energy("MN15-D3BJ")
--------------------------------------------------------------------------

    Molecular point group: d2h
    Geometry (in Angstrom), charge = 0, multiplicity = 2:

       Center              X                  Y                   Z               Mass
    ------------   -----------------  -----------------  -----------------  -----------------
         AU           0.000000000000     0.000000000000     0.000000000000   196.966568790000

  Charge       = 0
  Multiplicity = 2
  Basis Set: DEF2-TZVPPD
    Blend: DEF2-TZVPPD
  Basis Set: (DEF2-TZVPPD AUX)
    Blend: DEF2-UNIVERSAL-JKFIT

    Orbital Energies [Eh]
    ---------------------

    Alpha Occupied:

       1Ag    -4.098093     1B3u   -2.302447     1B2u   -2.302447
       1B1u   -2.302447     2Ag    -0.343117     1B1g   -0.343117
       1B2g   -0.343117     1B3g   -0.343117     3Ag    -0.343117
       4Ag    -0.279156

    Alpha Virtual:

       2B3u    0.007892     2B2u    0.007892     2B1u    0.007892
       5Ag     0.171908     3B3u    0.235513     3B2u    0.235513
       3B1u    0.235513     6Ag     0.338859     2B1g    0.338859
       2B2g    0.338859     2B3g    0.338859     7Ag     0.338859
       4B3u    1.081953     4B2u    1.081953     4B1u    1.081953
       5B3u    1.123663     5B2u    1.123663     5B1u    1.123663
       1Au     1.123663     6B3u    1.123663     6B2u    1.123663
       6B1u    1.123663     8Ag     1.506642     3B1g    1.506642
       3B2g    1.506642     3B3g    1.506642     9Ag     1.506642
      10Ag     1.947340     7B3u    3.522069     7B2u    3.522069
       7B1u    3.522069     2Au     3.522069     8B3u    3.522069
       8B2u    3.522069     8B1u    3.522069    11Ag     4.034692
       4B1g    4.034692     4B2g    4.034692     4B3g    4.034692
      12Ag     4.034692     5B2g    4.034692     5B1g    4.034692
      13Ag     4.034692     5B3g    4.034692     9B3u   26.964212
       9B2u   26.964212     9B1u   26.964212    14Ag    43.445726
      15Ag   204.936418

    Beta Occupied:

       1Ag    -4.095402     1B1u   -2.298724     1B3u   -2.298724
       1B2u   -2.298724     1B1g   -0.332966     1B2g   -0.332966
       2Ag    -0.332966     1B3g   -0.332966     3Ag    -0.332966

    Beta Virtual:

       4Ag    -0.135589     2B1u    0.050942     2B2u    0.050942
       2B3u    0.050942     5Ag     0.213478     3B3u    0.242293
       3B2u    0.242293     3B1u    0.242293     6Ag     0.365310
       2B3g    0.365310     2B2g    0.365310     2B1g    0.365310
       7Ag     0.365310     4B1u    1.105247     4B3u    1.105247
       4B2u    1.105247     5B2u    1.149085     5B3u    1.149085
       5B1u    1.149085     1Au     1.149085     6B3u    1.149085
       6B1u    1.149085     6B2u    1.149085     8Ag     1.528022
       3B1g    1.528022     3B2g    1.528022     9Ag     1.528022
       3B3g    1.528022    10Ag     1.954610     7B3u    3.529617
       7B2u    3.529617     7B1u    3.529617     8B3u    3.529617
       2Au     3.529617     8B1u    3.529617     8B2u    3.529617
      11Ag     4.042919     4B1g    4.042919     4B2g    4.042919
       4B3g    4.042919    12Ag     4.042919     5B1g    4.042919
       5B2g    4.042919     5B3g    4.042919    13Ag     4.042919
       9B3u   26.977112     9B2u   26.977112     9B1u   26.977112
      14Ag    43.469561    15Ag   204.942401

    Final Occupation by Irrep:
             Ag   B1g   B2g   B3g    Au   B1u   B2u   B3u
    DOCC [     3,    1,    1,    1,    0,    1,    1,    1 ]
    SOCC [     1,    0,    0,    0,    0,    0,    0,    0 ]

  @DF-UKS Final Energy:  -135.47980177977342

   => Energetics <=

    Nuclear Repulsion Energy =              0.0000000000000000
    One-Electron Energy =                -238.3662535798522981
    Two-Electron Energy =                 110.2272513325623748
    DFT Exchange-Correlation Energy =      -7.3407995324835005
    Empirical Dispersion Energy =           0.0000000000000000
    VV10 Nonlocal Energy =                  0.0000000000000000
    Total Energy =                       -135.4798017797733962

  UHF NO Occupations:
  HONO-2 :    3 Ag 1.9999476
  HONO-1 :    1B1g 1.9999476
  HONO-0 :    4 Ag 1.0000000
  LUNO+0 :    2B1g 0.0000524
  LUNO+1 :    5 Ag 0.0000524
  LUNO+2 :    2B2g 0.0000524
  LUNO+3 :    2B3g 0.0000524

Computation Completed

Properties will be evaluated at   0.000000,   0.000000,   0.000000 [a0]

Properties computed using the SCF density matrix

  Nuclear Dipole Moment: [e a0]
     X:     0.0000      Y:     0.0000      Z:     0.0000

  Electronic Dipole Moment: [e a0]
     X:     0.0000      Y:     0.0000      Z:     0.0000

  Dipole Moment: [e a0]
     X:     0.0000      Y:     0.0000      Z:     0.0000     Total:     0.0000

  Dipole Moment: [D]
     X:     0.0000      Y:     0.0000      Z:     0.0000     Total:     0.0000

*** tstop() called on compute405.bc4.acrc.priv at Tue Nov  2 11:08:35 2021
Module time:
	user time   =      78.52 seconds =       1.31 minutes
	system time =       2.95 seconds =       0.05 minutes
	total time  =          6 seconds =       0.10 minutes
Total time:
	user time   =      78.52 seconds =       1.31 minutes
	system time =       2.95 seconds =       0.05 minutes
	total time  =          6 seconds =       0.10 minutes

    Psi4 stopped on: Tuesday, 02 November 2021 11:08AM
    Psi4 wall time for execution: 0:00:05.97

*** Psi4 exiting successfully. Buy a developer a beer!
