                               Psi4 1.4.1 release

  ==> Input File <==

--------------------------------------------------------------------------
memory 120 GB

molecule {
2 1
Au      -0.000000   -0.000044    1.659420
Au      -1.354966    0.782292   -0.553161
Au       1.354966    0.782292   -0.553161
Au       0.000000   -1.564540   -0.553099
 }

set basis Def2-TZVPPD

energy("MN15-D3BJ")
--------------------------------------------------------------------------

    Molecular point group: cs

    Geometry (in Angstrom), charge = 2, multiplicity = 1:

       Center              X                  Y                   Z               Mass
    ------------   -----------------  -----------------  -----------------  -----------------
         AU           0.000044000000    -1.659420250000     0.000000000000   196.966568790000
         AU          -0.782292000000     0.553160750000    -1.354966000000   196.966568790000
         AU          -0.782292000000     0.553160750000     1.354966000000   196.966568790000
         AU           1.564540000000     0.553098750000     0.000000000000   196.966568790000

  Charge       = 2
  Multiplicity = 1
  Basis Set: DEF2-TZVPPD
    Blend: DEF2-TZVPPD
  Basis Set: (DEF2-TZVPPD AUX)
    Blend: DEF2-UNIVERSAL-JKFIT

    Orbital Energies [Eh]
    ---------------------

    Doubly Occupied:

       1Ap    -4.505645     1App   -4.505274     2Ap    -4.505270
       3Ap    -4.505265     4Ap    -2.718337     2App   -2.712020
       5Ap    -2.712017     6Ap    -2.712015     7Ap    -2.708531
       3App   -2.708530     8Ap    -2.706143     4App   -2.706139
       9Ap    -2.706139     5App   -2.705251     6App   -2.705249
      10Ap    -2.705249    11Ap    -0.846474    12Ap    -0.798904
       7App   -0.798900    13Ap    -0.798891    14Ap    -0.780346
       8App   -0.780339    15Ap    -0.758659     9App   -0.758658
      16Ap    -0.758656    17Ap    -0.731479    18Ap    -0.722187
      10App   -0.722184    19Ap    -0.722177    11App   -0.720413
      20Ap    -0.720408    12App   -0.720406    21Ap    -0.718514
      13App   -0.718504    14App   -0.687734    22Ap    -0.687726
      15App   -0.687724

  @DF-RKS Final Energy:  -541.41232507458039

   => Energetics <=

    Nuclear Repulsion Energy =            422.9698522073878166
    One-Electron Energy =               -1768.7650135209792097
    Two-Electron Energy =                 833.5761071634035488
    DFT Exchange-Correlation Energy =     -29.1930007943924679
    Empirical Dispersion Energy =          -0.0002701300000000
    VV10 Nonlocal Energy =                  0.0000000000000000
    Total Energy =                       -541.4123250745803944

  Dipole Moment: [D]
     X:    -0.0000      Y:     0.0007      Z:     0.0000     Total:     0.0007

*** Psi4 exiting successfully. Buy a developer a beer!
