                               Psi4 1.4.1 release

  ==> Input File <==

--------------------------------------------------------------------------
memory 120 GB

molecule {
2 1
Au      -0.274490    1.572639   -0.000000
Au       1.635934   -0.418177    0.000000
Au      -0.639028   -0.815642    1.333593
Au      -0.639028   -0.815642   -1.333593
N       -0.639028    3.654013   -0.000000
H       -0.235750    4.112347    0.824759
H       -0.235750    4.112347   -0.824759
H       -1.642949    3.866239   -0.000000
 }

set basis Def2-TZVPPD

energy("MN15-D3BJ")
--------------------------------------------------------------------------

    Molecular point group: cs

    Geometry (in Angstrom), charge = 2, multiplicity = 1:

       Center              X                  Y                   Z               Mass
    ------------   -----------------  -----------------  -----------------  -----------------
         AU          -0.281131004952     1.610613041947     0.000000000000   196.966568790000
         AU           1.629292995048    -0.380202958053     0.000000000000   196.966568790000
         AU          -0.645669004952    -0.777667958053     1.333593000000   196.966568790000
         AU          -0.645669004952    -0.777667958053    -1.333593000000   196.966568790000
         N           -0.645669004952     3.691987041947     0.000000000000    14.003074004430
         H           -0.242391004952     4.150321041947     0.824759000000     1.007825032230
         H           -0.242391004952     4.150321041947    -0.824759000000     1.007825032230
         H           -1.649590004952     3.904213041947     0.000000000000     1.007825032230

  Charge       = 2
  Multiplicity = 1
  Basis Set: DEF2-TZVPPD
    Blend: DEF2-TZVPPD
  Basis Set: (DEF2-TZVPPD AUX)
    Blend: DEF2-UNIVERSAL-JKFIT

    Orbital Energies [Eh]
    ---------------------

    Doubly Occupied:

       1Ap   -14.467341     2Ap    -4.468664     1App   -4.468279
       3Ap    -4.468277     4Ap    -4.466748     5Ap    -2.681512
       2App   -2.674911     6Ap    -2.674904     7Ap    -2.674513
       3App   -2.670589     8Ap    -2.670580     9Ap    -2.668696
       4App   -2.668538    10Ap    -2.668535     5App   -2.668301
       6App   -2.664738    11Ap    -2.664736    12Ap    -1.263015
      13Ap    -0.867057     7App   -0.867049    14Ap    -0.828122
      15Ap    -0.779381     8App   -0.758610    16Ap    -0.758570
      17Ap    -0.748389     9App   -0.740477    18Ap    -0.740474
      19Ap    -0.723676    10App   -0.717353    20Ap    -0.717353
      21Ap    -0.696630    11App   -0.684441    22Ap    -0.684408
      12App   -0.681523    13App   -0.681150    23Ap    -0.681137
      24Ap    -0.678397    14App   -0.678390    15App   -0.649681
      25Ap    -0.649657    16App   -0.648613    26Ap    -0.644990

  @DF-RKS Final Energy:  -598.04520198883984

   => Energetics <=

    Nuclear Repulsion Energy =            541.9645184554937032
    One-Electron Energy =               -2081.7852437116534929
    Two-Electron Energy =                 975.5634371673215810
    DFT Exchange-Correlation Energy =     -33.7873855400017362
    Empirical Dispersion Energy =          -0.0005283600000000
    VV10 Nonlocal Energy =                  0.0000000000000000
    Total Energy =                       -598.0452019888398354

  Dipole Moment: [D]
     X:    -1.1817      Y:     6.7546      Z:     0.0000     Total:     6.8572

*** Psi4 exiting successfully. Buy a developer a beer!
