                               Psi4 1.4.1 release

  ==> Input File <==

--------------------------------------------------------------------------
memory 120 GB

molecule {
2 1
Au       0.000000    1.548281   -0.453246
Au       1.340851   -0.774141   -0.453246
Au      -1.340851   -0.774141   -0.453246
Au       0.000000    0.000000    1.783664
N        0.000000    0.000000   -3.226055
H       -0.813891    0.469900   -3.635956
H        0.813891    0.469900   -3.635956
H       -0.000000   -0.939800   -3.635956
 }

set basis Def2-TZVPPD

energy("MN15-D3BJ")
--------------------------------------------------------------------------

    Molecular point group: cs

    Geometry (in Angstrom), charge = 2, multiplicity = 1:

       Center              X                  Y                   Z               Mass
    ------------   -----------------  -----------------  -----------------  -----------------
         AU          -1.548281244712     0.487202496432     0.000000000000   196.966568790000
         AU           0.774140755288     0.487202496432     1.340851000000   196.966568790000
         AU           0.774140755288     0.487202496432    -1.340851000000   196.966568790000
         AU          -0.000000244712    -1.749707503568     0.000000000000   196.966568790000
         N           -0.000000244712     3.260011496432     0.000000000000    14.003074004430
         H           -0.469900244712     3.669912496432    -0.813891000000     1.007825032230
         H           -0.469900244712     3.669912496432     0.813891000000     1.007825032230
         H            0.939799755288     3.669912496432     0.000000000000     1.007825032230

  Charge       = 2
  Multiplicity = 1
  Basis Set: DEF2-TZVPPD
    Blend: DEF2-TZVPPD
  Basis Set: (DEF2-TZVPPD AUX)
    Blend: DEF2-UNIVERSAL-JKFIT

    Orbital Energies [Eh]
    ---------------------

    Doubly Occupied:

       1Ap   -14.401943     2Ap    -4.479506     3Ap    -4.479158
       1App   -4.479151     4Ap    -4.473125     5Ap    -2.691745
       6Ap    -2.685885     2App   -2.685885     7Ap    -2.682849
       3App   -2.681926     8Ap    -2.681915     4App   -2.679872
       9Ap    -2.679301     5App   -2.679298    10Ap    -2.677106
       6App   -2.674132    11Ap    -2.674131    12Ap    -1.205508
      13Ap    -0.821254     7App   -0.808687    14Ap    -0.808685
      15Ap    -0.776218     8App   -0.771747    16Ap    -0.771731
       9App   -0.753464    17Ap    -0.753459    18Ap    -0.736766
      10App   -0.730057    19Ap    -0.730053    20Ap    -0.718240
      11App   -0.695811    21Ap    -0.695805    12App   -0.693826
      22Ap    -0.692974    13App   -0.692962    23Ap    -0.692627
      14App   -0.690348    24Ap    -0.690342    15App   -0.660471
      16App   -0.659973    25Ap    -0.659970    26Ap    -0.627777

  @DF-RKS Final Energy:  -597.97078975275690

   => Energetics <=

    Nuclear Repulsion Energy =            547.1140380717746439
    One-Electron Energy =               -2091.7997285995793391
    Two-Electron Energy =                 980.4958630361535370
    DFT Exchange-Correlation Energy =     -33.7804230611059708
    Empirical Dispersion Energy =          -0.0005392000000000
    VV10 Nonlocal Energy =                  0.0000000000000000
    Total Energy =                       -597.9707897527570140

  Dipole Moment: [D]
     X:     0.0001      Y:     4.8501      Z:     0.0000     Total:     4.8501

*** Psi4 exiting successfully. Buy a developer a beer!
