                               Psi4 1.4.1 release

  ==> Input File <==

--------------------------------------------------------------------------
memory 144 GB

molecule {
0 2
Cu       0.000000    0.000000    0.000000
 }

set reference uks
set basis Def2-TZVPPD

energy("MN15-D3BJ")
--------------------------------------------------------------------------

    Molecular point group: d2h
    Geometry (in Angstrom), charge = 0, multiplicity = 2:

       Center              X                  Y                   Z               Mass
    ------------   -----------------  -----------------  -----------------  -----------------
         CU           0.000000000000     0.000000000000     0.000000000000    62.929597720000

  Charge       = 0
  Multiplicity = 2
  Basis Set: DEF2-TZVPPD
    Blend: DEF2-TZVPPD
  Basis Set: (DEF2-TZVPPD AUX)
    Blend: DEF2-UNIVERSAL-JKFIT

    Orbital Energies [Eh]
    ---------------------

    Alpha Occupied:

       1Ag  -320.688735     2Ag   -37.854880     1B3u  -33.705562
       1B2u  -33.705562     1B1u  -33.705561     3Ag    -4.078739
       2B3u   -2.748168     2B2u   -2.748168     2B1u   -2.748168
       4Ag    -0.319851     1B3g   -0.319850     1B2g   -0.319850
       5Ag    -0.319850     1B1g   -0.319850     6Ag    -0.219290

    Alpha Virtual:

       3B1u    0.001631     3B2u    0.001633     3B3u    0.001633
       7Ag     0.127860     4B1u    0.169704     4B2u    0.169706
       4B3u    0.169706     8Ag     0.215858     2B3g    0.215858
       2B2g    0.215858     2B1g    0.215859     9Ag     0.215859
       5B1u    0.719052     5B2u    0.719054     5B3u    0.719055
      10Ag     0.930151     3B3g    0.930151     3B2g    0.930152
       3B1g    0.930154    11Ag     0.930154     6B1u    2.981576
       6B2u    2.981580     6B3u    2.981580    12Ag     2.984084
       7B1u    3.412248     7B2u    3.412249     7B3u    3.412249
       1Au     3.412251     8B1u    3.412251     8B3u    3.412254
       8B2u    3.412254    13Ag     3.614504     4B3g    3.614505
       4B2g    3.614505    14Ag     3.614507     4B1g    3.614507
      15Ag    12.715532     5B3g   12.715532     5B2g   12.715532
       5B1g   12.715532    16Ag    12.715532     6B2g   12.715532
       6B3g   12.715532    17Ag    12.715533     6B1g   12.715533
       9B3u   12.875659     9B2u   12.875660     9B1u   12.875661
       2Au    12.875661    10B3u   12.875662    10B2u   12.875662
      10B1u   12.875662

    Beta Occupied:

       1Ag  -320.687982     2Ag   -37.855241     1B1u  -33.706623
       1B2u  -33.706620     1B3u  -33.706620     3Ag    -4.076507
       2B3u   -2.748408     2B2u   -2.748407     2B1u   -2.748405
       4Ag    -0.317969     1B1g   -0.317969     1B2g   -0.317968
       1B3g   -0.317968     5Ag    -0.317967

    Beta Virtual:

       6Ag    -0.070940     3B3u    0.063568     3B2u    0.063568
       3B1u    0.063575     4B3u    0.170973     4B2u    0.170973
       4B1u    0.170978     7Ag     0.175005     8Ag     0.272219
       2B1g    0.272219     2B2g    0.272224     2B3g    0.272225
       9Ag     0.272227     5B3u    0.742364     5B2u    0.742364
       5B1u    0.742366    10Ag     0.935893     3B1g    0.935893
       3B2g    0.935893     3B3g    0.935893    11Ag     0.935894
       6B3u    2.991241     6B2u    2.991241     6B1u    2.991242
      12Ag     2.996795     7B3u    3.425882     7B2u    3.425882
       7B1u    3.425882     1Au     3.425882     8B3u    3.425883
       8B2u    3.425883     8B1u    3.425883    13Ag     3.624924
       4B1g    3.624924     4B2g    3.624925     4B3g    3.624925
      14Ag     3.624925    15Ag    12.714290     5B1g   12.714290
      16Ag    12.714290     5B3g   12.714290     5B2g   12.714290
      17Ag    12.714290     6B1g   12.714290     6B3g   12.714290
       6B2g   12.714290     9B2u   12.876825     9B3u   12.876825
       9B1u   12.876827     2Au    12.876827    10B3u   12.876828
      10B2u   12.876828    10B1u   12.876828

    Final Occupation by Irrep:
             Ag   B1g   B2g   B3g    Au   B1u   B2u   B3u
    DOCC [     5,    1,    1,    1,    0,    2,    2,    2 ]
    SOCC [     1,    0,    0,    0,    0,    0,    0,    0 ]

  @DF-UKS Final Energy: -1640.74930804985343

   => Energetics <=

    Nuclear Repulsion Energy =              0.0000000000000000
    One-Electron Energy =               -2287.3792105576994800
    Two-Electron Energy =                 685.2111752662309527
    DFT Exchange-Correlation Energy =     -38.5812727583848414
    Empirical Dispersion Energy =           0.0000000000000000
    VV10 Nonlocal Energy =                  0.0000000000000000
    Total Energy =                      -1640.7493080498534255

  UHF NO Occupations:
  HONO-2 :    1B3g 1.9998875
  HONO-1 :    5 Ag 1.9998875
  HONO-0 :    6 Ag 1.0000000
  LUNO+0 :    7 Ag 0.0001125
  LUNO+1 :    2B3g 0.0001125
  LUNO+2 :    2B2g 0.0001125
  LUNO+3 :    2B1g 0.0001124

Computation Completed

Properties will be evaluated at   0.000000,   0.000000,   0.000000 [a0]

Properties computed using the SCF density matrix

  Nuclear Dipole Moment: [e a0]
     X:     0.0000      Y:     0.0000      Z:     0.0000

  Electronic Dipole Moment: [e a0]
     X:     0.0000      Y:     0.0000      Z:     0.0000

  Dipole Moment: [e a0]
     X:     0.0000      Y:     0.0000      Z:     0.0000     Total:     0.0000

  Dipole Moment: [D]
     X:     0.0000      Y:     0.0000      Z:     0.0000     Total:     0.0000

*** tstop() called on bc4login1.bc4.acrc.priv at Tue Nov  2 14:10:25 2021
Module time:
	user time   =      24.22 seconds =       0.40 minutes
	system time =       0.95 seconds =       0.02 minutes
	total time  =          2 seconds =       0.03 minutes
Total time:
	user time   =      24.22 seconds =       0.40 minutes
	system time =       0.95 seconds =       0.02 minutes
	total time  =          2 seconds =       0.03 minutes

    Psi4 stopped on: Tuesday, 02 November 2021 02:10PM
    Psi4 wall time for execution: 0:00:02.54

*** Psi4 exiting successfully. Buy a developer a beer!
