                               Psi4 1.4.1 release

  ==> Input File <==

--------------------------------------------------------------------------
memory 144 GB

molecule {
0 1
Cu       0.000000    0.000000    0.048513
H        0.000000    0.000000   -1.406870
 }

set basis Def2-TZVPPD

energy("MN15-D3BJ")
--------------------------------------------------------------------------

    Molecular point group: c2v

    Geometry (in Angstrom), charge = 0, multiplicity = 1:

       Center              X                  Y                   Z               Mass
    ------------   -----------------  -----------------  -----------------  -----------------
         CU           0.000000000000     0.000000000000     0.022940734170    62.929597720000
         H            0.000000000000     0.000000000000    -1.432442265830     1.007825032230

  Charge       = 0
  Multiplicity = 1
  Basis Set: DEF2-TZVPPD
    Blend: DEF2-TZVPPD
  Basis Set: (DEF2-TZVPPD AUX)
    Blend: DEF2-UNIVERSAL-JKFIT

    Orbital Energies [Eh]
    ---------------------

    Doubly Occupied:

       1A1  -320.713302     2A1   -37.886225     3A1   -33.741241
       1B1   -33.733085     1B2   -33.733085     4A1    -4.104385
       5A1    -2.777148     2B1    -2.771736     2B2    -2.771736
       6A1    -0.380899     3B1    -0.341872     3B2    -0.341872
       1A2    -0.340072     7A1    -0.340072     8A1    -0.278212

  @DF-RKS Final Energy: -1641.34635597822512

   => Energetics <=

    Nuclear Repulsion Energy =             10.5443990409603536
    One-Electron Energy =               -2308.3626080889657715
    Two-Electron Energy =                 695.2622217574044043
    DFT Exchange-Correlation Energy =     -38.7903576576240994
    Empirical Dispersion Energy =          -0.0000110300000000
    VV10 Nonlocal Energy =                  0.0000000000000000
    Total Energy =                      -1641.3463559782251195

  Dipole Moment: [D]
     X:     0.0000      Y:     0.0000      Z:     3.0202     Total:     3.0202

*** Psi4 exiting successfully. Buy a developer a beer!
