                               Psi4 1.3.2 release

  ==> Input File <==

--------------------------------------------------------------------------
memory 144 GB

molecule {
0 1
Cu       0.000000    0.000000    0.412716
F        0.000000    0.000000   -1.329863
 }

set basis Def2-TZVPPD

energy("MN15-D3BJ")
--------------------------------------------------------------------------

    Molecular point group: c2v

    Geometry (in Angstrom), charge = 0, multiplicity = 1:

       Center              X                  Y                   Z               Mass
    ------------   -----------------  -----------------  -----------------  -----------------
         CU           0.000000000000     0.000000000000     0.404089176206    62.929597720000
         F            0.000000000000     0.000000000000    -1.338489823794    18.998403162730

  Charge       = 0
  Multiplicity = 1
  Basis Set: DEF2-TZVPPD
    Blend: DEF2-TZVPPD
  Basis Set: (DEF2-TZVPPD AUX)
    Blend: DEF2-TZVPP-JKFIT

    Orbital Energies [Eh]
    ---------------------

    Doubly Occupied:

       1A1  -320.729771     2A1   -37.899991     3A1   -33.755313
       1B2   -33.747306     1B1   -33.747306     4A1   -24.170488
       5A1    -4.123253     2B2    -2.794151     2B1    -2.794151
       6A1    -2.792103     7A1    -1.082230     8A1    -0.434315
       3B2    -0.406153     3B1    -0.406153     9A1    -0.363910
       1A2    -0.363900     4B2    -0.325978     4B1    -0.325978
      10A1    -0.315332

  @DF-RKS Final Energy: -1740.59014401200102

   => Energetics <=

    Nuclear Repulsion Energy =             79.2591050304577180
    One-Electron Energy =               -2585.4162102899726960
    Two-Electron Energy =                 810.1480765898207892
    DFT Exchange-Correlation Energy =     -44.5811030823067753
    Empirical Dispersion Energy =          -0.0000122600000000
    VV10 Nonlocal Energy =                  0.0000000000000000
    Total Energy =                      -1740.5901440120007919

  Dipole Moment: [D]
     X:     0.0000      Y:     0.0000      Z:     5.3395     Total:     5.3395

*** Psi4 exiting successfully. Buy a developer a beer!
