                               Psi4 1.3.2 release

  ==> Input File <==

--------------------------------------------------------------------------
memory 144 GB

molecule {
0 1
Cu       0.000000    0.000000    1.107490
Cu       0.000000    0.000000   -1.107490
 }

set basis Def2-TZVPPD

energy("MN15-D3BJ")
--------------------------------------------------------------------------

    Molecular point group: d2h

    Geometry (in Angstrom), charge = 0, multiplicity = 1:

       Center              X                  Y                   Z               Mass
    ------------   -----------------  -----------------  -----------------  -----------------
         CU           0.000000000000     0.000000000000     1.107490000000    62.929597720000
         CU           0.000000000000     0.000000000000    -1.107490000000    62.929597720000

  Charge       = 0
  Multiplicity = 1
  Basis Set: DEF2-TZVPPD
    Blend: DEF2-TZVPPD
  Basis Set: (DEF2-TZVPPD AUX)
    Blend: DEF2-TZVPP-JKFIT

    Orbital Energies [Eh]
    ---------------------

    Doubly Occupied:

       1B1u -320.685489     1Ag  -320.685474     2B1u  -37.855350
       2Ag   -37.855134     3B1u  -33.707289     3Ag   -33.707280
       1B3g  -33.704543     1B2g  -33.704543     1B2u  -33.704533
       1B3u  -33.704533     4Ag    -4.075901     4B1u   -4.075025
       5Ag    -2.750523     2B3u   -2.744613     2B2u   -2.744613
       2B2g   -2.744047     2B3g   -2.744047     5B1u   -2.744038
       6Ag    -0.346628     3B3u   -0.334567     3B2u   -0.334567
       7Ag    -0.317474     1B1g   -0.317470     6B1u   -0.309090
       1Au    -0.309085     3B3g   -0.297192     3B2g   -0.297192
       7B1u   -0.292703     8Ag    -0.236976

  @DF-RKS Final Energy: -3281.57104528280706

   => Energetics <=

    Nuclear Repulsion Energy =            200.9219199150647057
    One-Electron Energy =               -4976.8047951811940948
    Two-Electron Energy =                1571.5159566127460948
    DFT Exchange-Correlation Energy =     -77.2040951194239540
    Empirical Dispersion Energy =          -0.0000315100000000
    VV10 Nonlocal Energy =                  0.0000000000000000
    Total Energy =                      -3281.5710452828075177

  Dipole Moment: [D]
     X:     0.0000      Y:     0.0000      Z:    -0.0000     Total:     0.0000

*** Psi4 exiting successfully. Buy a developer a beer!
