                               Psi4 1.3.2 release

  ==> Input File <==

--------------------------------------------------------------------------
memory 144 GB

molecule {
1 1
Cu       0.000000    1.349261   -0.000000
Cu       1.168494   -0.674630    0.000000
Cu      -1.168494   -0.674630   -0.000000
 }

set basis Def2-TZVPPD

energy("MN15-D3BJ")
--------------------------------------------------------------------------

    Molecular point group: c2v

    Geometry (in Angstrom), charge = 1, multiplicity = 1:

       Center              X                  Y                   Z               Mass
    ------------   -----------------  -----------------  -----------------  -----------------
         CU           0.000000000000     0.000000000000     1.349260666667    62.929597720000
         CU           1.168494000000     0.000000000000    -0.674630333333    62.929597720000
         CU          -1.168494000000    -0.000000000000    -0.674630333333    62.929597720000

  Charge       = 1
  Multiplicity = 1
  Basis Set: DEF2-TZVPPD
    Blend: DEF2-TZVPPD
  Basis Set: (DEF2-TZVPPD AUX)
    Blend: DEF2-TZVPP-JKFIT

    Orbital Energies [Eh]
    ---------------------

    Doubly Occupied:

       1B1  -320.904333     1A1  -320.904331     2A1  -320.904315
       2B1   -38.072875     3A1   -38.072873     4A1   -38.072629
       3B1   -33.924875     5A1   -33.924874     6A1   -33.924859
       4B1   -33.923399     7A1   -33.923378     5B1   -33.923376
       1A2   -33.921142     1B2   -33.921140     2B2   -33.921129
       8A1    -4.293959     6B1    -4.293271     9A1    -4.293269
      10A1    -2.967601    11A1    -2.966277     7B1    -2.966276
       8B1    -2.963885     9B1    -2.962586    12A1    -2.962581
       3B2    -2.961887     2A2    -2.961413     4B2    -2.961410
      13A1    -0.574359    14A1    -0.557867    10B1    -0.557864
       5B2    -0.557233    15A1    -0.545840     3A2    -0.542005
       6B2    -0.542003    11B1    -0.523463    16A1    -0.523458
       4A2    -0.520452    17A1    -0.517091    12B1    -0.517087
       5A2    -0.516867     7B2    -0.516854    13B1    -0.500360
      18A1    -0.471178

  @DF-RKS Final Energy: -4922.15506082345109

   => Energetics <=

    Nuclear Repulsion Energy =            571.2969406416424363
    One-Electron Energy =               -7986.1166657220437628
    Two-Electron Energy =                2608.3819426448803824
    DFT Exchange-Correlation Energy =    -115.7171854079296054
    Empirical Dispersion Energy =          -0.0000929800000000
    VV10 Nonlocal Energy =                  0.0000000000000000
    Total Energy =                      -4922.1550608234510946

  Dipole Moment: [D]
     X:     0.0000      Y:     0.0000      Z:    -0.0002     Total:     0.0002

*** Psi4 exiting successfully. Buy a developer a beer!
