                               Psi4 1.3.2 release

  ==> Input File <==

--------------------------------------------------------------------------
memory 144 GB

molecule {
1 1
Cu       0.000000    0.000000    0.000000
Cu       0.000000    0.000000    2.337165
Cu       0.000000    0.000000   -2.337165
 }

set basis Def2-TZVPPD

energy("MN15-D3BJ")
--------------------------------------------------------------------------

    Molecular point group: d2h

    Geometry (in Angstrom), charge = 1, multiplicity = 1:

       Center              X                  Y                   Z               Mass
    ------------   -----------------  -----------------  -----------------  -----------------
         CU           0.000000000000     0.000000000000     0.000000000000    62.929597720000
         CU           0.000000000000     0.000000000000     2.337165000000    62.929597720000
         CU           0.000000000000     0.000000000000    -2.337165000000    62.929597720000

  Charge       = 1
  Multiplicity = 1
  Basis Set: DEF2-TZVPPD
    Blend: DEF2-TZVPPD
  Basis Set: (DEF2-TZVPPD AUX)
    Blend: DEF2-TZVPP-JKFIT

    Orbital Energies [Eh]
    ---------------------

    Doubly Occupied:

       1B1u -320.906497     1Ag  -320.906491     2Ag  -320.867386
       2B1u  -38.069604     3Ag   -38.069515     4Ag   -38.038898
       5Ag   -33.922115     3B1u  -33.922111     1B3g  -33.920465
       1B2g  -33.920465     1B2u  -33.920462     1B3u  -33.920462
       4B1u  -33.891969     2B2u  -33.887009     2B3u  -33.887009
       5B1u   -4.293310     6Ag    -4.293255     7Ag    -4.258088
       6B1u   -2.966631     8Ag    -2.966414     3B3u   -2.964088
       3B2u   -2.964088     2B2g   -2.964080     2B3g   -2.964080
       7B1u   -2.931559     4B2u   -2.925081     4B3u   -2.925081
       9Ag    -0.560871     3B2g   -0.545021     3B3g   -0.545021
       8B1u   -0.538237     5B3u   -0.537017     5B2u   -0.537017
      10Ag    -0.534652     1B1g   -0.534650     9B1u   -0.534158
       1Au    -0.534155    11Ag    -0.492266     2B1g   -0.492264
       4B2g   -0.488599     4B3g   -0.488599    12Ag    -0.486778
      13Ag    -0.428284

  @DF-RKS Final Energy: -4922.09572033551194

   => Energetics <=

    Nuclear Repulsion Energy =            476.0447317299698398
    One-Electron Energy =               -7796.5844290798395377
    Two-Electron Energy =                2514.1414611667023564
    DFT Exchange-Correlation Energy =    -115.6973907123436618
    Empirical Dispersion Energy =          -0.0000934400000000
    VV10 Nonlocal Energy =                  0.0000000000000000
    Total Energy =                      -4922.0957203355110323

  Dipole Moment: [D]
     X:     0.0000      Y:     0.0000      Z:    -0.0000     Total:     0.0000

*** Psi4 exiting successfully. Buy a developer a beer!
