                               Psi4 1.3.2 release

  ==> Input File <==

--------------------------------------------------------------------------
memory 144 GB

molecule {
0 2
Cu       0.000000    0.000000    0.000000
Cu       0.000000    0.000000    2.291099
Cu       0.000000    0.000000   -2.291099
 }

set reference uks
set basis Def2-TZVPPD

energy("MN15-D3BJ")
--------------------------------------------------------------------------

    Molecular point group: d2h

    Geometry (in Angstrom), charge = 0, multiplicity = 2:

       Center              X                  Y                   Z               Mass
    ------------   -----------------  -----------------  -----------------  -----------------
         CU           0.000000000000     0.000000000000     0.000000000000    62.929597720000
         CU           0.000000000000     0.000000000000     2.291099000000    62.929597720000
         CU           0.000000000000     0.000000000000    -2.291099000000    62.929597720000

  Charge       = 0
  Multiplicity = 2
  Basis Set: DEF2-TZVPPD
    Blend: DEF2-TZVPPD
  Basis Set: (DEF2-TZVPPD AUX)
    Blend: DEF2-TZVPP-JKFIT

    Orbital Energies [Eh]
    ---------------------

    Alpha Occupied:

       1B1u -320.697932     1Ag  -320.697925     2Ag  -320.685875
       2B1u  -37.866319     3Ag   -37.866220     4Ag   -37.858626
       5Ag   -33.718087     3B1u  -33.718083     1B3g  -33.715644
       1B2g  -33.715644     1B2u  -33.715640     1B3u  -33.715640
       4B1u  -33.710720     2B3u  -33.706661     2B2u  -33.706661
       5B1u   -4.087778     6Ag    -4.087739     7Ag    -4.076694
       6B1u   -2.759918     8Ag    -2.758858     3B3u   -2.756088
       3B2u   -2.756088     2B2g   -2.756084     2B3g   -2.756084
       7B1u   -2.748209     4B3u   -2.744686     4B2u   -2.744686
       9Ag    -0.365267     3B3g   -0.345741     3B2g   -0.345741
       8B1u   -0.330394     5B3u   -0.329484     5B2u   -0.329484
      10Ag    -0.327763     1B1g   -0.327760     9B1u   -0.326050
       1Au    -0.326047    11Ag    -0.310772     2B1g   -0.310769
       4B3g   -0.297036     4B2g   -0.297036    12Ag    -0.294110
      13Ag    -0.264356    10B1u   -0.218467

    Alpha Virtual:

      14Ag    -0.052393     6B3u   -0.025846     6B2u   -0.025846
      11B1u    0.012659     5B2g    0.018348     5B3g    0.018348
      15Ag     0.091348    12B1u    0.092833     7B3u    0.094910
       7B2u    0.094910    16Ag     0.118895     8B3u    0.156327
       8B2u    0.156327    13B1u    0.160946     6B2g    0.172013
       6B3g    0.172013    17Ag     0.182257     3B1g    0.182262
      14B1u    0.221313     2Au     0.221316    18Ag     0.224293
       9B3u    0.230766     9B2u    0.230766    19Ag     0.245145
       7B2g    0.260198     7B3g    0.260198    15B1u    0.278864
      20Ag     0.320980     4B1g    0.320984    16B1u    0.330312
      10B3u    0.376431    10B2u    0.376431    21Ag     0.404835
       8B2g    0.495663     8B3g    0.495663    22Ag     0.536375
      17B1u    0.593505    18B1u    0.643000    11B3u    0.692992
      11B2u    0.692992     9B2g    0.720185     9B3g    0.720185
      12B3u    0.791329    12B2u    0.791330    23Ag     0.811855
       5B1g    0.895549    24Ag     0.895594     3Au     0.937085
      19B1u    0.937132    10B2g    0.942806    10B3g    0.942806
      20B1u    0.947084    13B3u    0.993823    13B2u    0.993823
      25Ag     0.994122     6B1g    1.009272    26Ag     1.009321
      11B2g    1.189711    11B3g    1.189711    21B1u    1.226987
      27Ag     1.510889    14B3u    2.947208    14B2u    2.947208
      28Ag     3.026755    22B1u    3.031679    12B2g    3.043501
      12B3g    3.043501    15B3u    3.066445    15B2u    3.066445
      23B1u    3.110498    29Ag     3.196050    30Ag     3.376073
      16B3u    3.388698    16B2u    3.388699    13B2g    3.392460
      13B3g    3.392461    24B1u    3.393484     4Au     3.408155
      25B1u    3.408199     7B1g    3.409156    31Ag     3.409198
      17B3u    3.412537    17B2u    3.412537    14B3g    3.412539
      14B2g    3.412539     5Au     3.429635    26B1u    3.429705
      18B3u    3.436302    18B2u    3.436302    19B3u    3.446070
      19B2u    3.446070    27B1u    3.459597    32Ag     3.556661
       8B1g    3.596563    33Ag     3.596584     6Au     3.620122
      28B1u    3.620148    15B2g    3.660766    15B3g    3.660766
       9B1g    3.670453    34Ag     3.670475    29B1u    3.725473
      20B3u    3.728528    20B2u    3.728528    16B2g    3.818611
      16B3g    3.818611    35Ag     3.948698    30B1u    4.056404
      36Ag     4.402069    21B3u   12.706110    21B2u   12.706110
      17B2g   12.706868    17B3g   12.706868     7Au    12.706948
      31B1u   12.706976    10B1g   12.707004    32B1u   12.707017
      37Ag    12.707032    38Ag    12.707374    22B2u   12.708269
      22B3u   12.708269    18B3g   12.708269    18B2g   12.708269
      33B1u   12.709529    39Ag    12.709529     8Au    12.709672
      11B1g   12.709672    19B2g   12.718197    19B3g   12.718197
      12B1g   12.718771    40Ag    12.718833    20B2g   12.720687
      20B3g   12.720687    41Ag    12.721303    42Ag    12.722639
      13B1g   12.722841    23B2u   12.865287    23B3u   12.865287
       9Au    12.866862    34B1u   12.866995    24B3u   12.867810
      24B2u   12.867810    21B3g   12.867810    21B2g   12.867810
      14B1g   12.867936    43Ag    12.868067    35B1u   12.871310
      10Au    12.878329    36B1u   12.878522    25B2u   12.878881
      25B3u   12.878881    22B3g   12.881380    22B2g   12.881381
      26B2u   12.894933    26B3u   12.894933    44Ag    12.956253
      37B1u   12.991999

    Beta Occupied:

       1B1u -320.697461     1Ag  -320.697454     2Ag  -320.685865
       2B1u  -37.866555     3Ag   -37.866456     4Ag   -37.858331
       5Ag   -33.718371     3B1u  -33.718366     1B2g  -33.716514
       1B3g  -33.716513     1B3u  -33.716510     1B2u  -33.716510
       4B1u  -33.710388     2B3u  -33.706651     2B2u  -33.706651
       5B1u   -4.086456     6Ag    -4.086419     7Ag    -4.077183
       6B1u   -2.760584     8Ag    -2.759589     3B2u   -2.756171
       3B3u   -2.756171     2B3g   -2.756158     2B2g   -2.756158
       7B1u   -2.748399     4B3u   -2.744838     4B2u   -2.744838
       9Ag    -0.362373     3B3g   -0.344864     3B2g   -0.344864
       8B1u   -0.330045     5B2u   -0.328617     5B3u   -0.328617
      10Ag    -0.326565     1B1g   -0.326561     9B1u   -0.324682
       1Au    -0.324678    11Ag    -0.311035     2B1g   -0.311032
       4B3g   -0.297740     4B2g   -0.297740    12Ag    -0.292790
      13Ag    -0.243940

    Beta Virtual:

      10B1u   -0.113614    14Ag    -0.019467     6B2u   -0.014883
       6B3u   -0.014883    11B1u    0.042465     5B3g    0.048606
       5B2g    0.048606    15Ag     0.094715    12B1u    0.095533
       7B2u    0.108928     7B3u    0.108928    16Ag     0.125851
       8B2u    0.157447     8B3u    0.157447     6B3g    0.175788
       6B2g    0.175788    13B1u    0.177119    17Ag     0.189454
       3B1g    0.189459     9B2u    0.229008     9B3u    0.229008
      18Ag     0.235441    14B1u    0.245035     2Au     0.245038
      19Ag     0.259701     7B3g    0.281980     7B2g    0.281980
      15B1u    0.294275    20Ag     0.330641     4B1g    0.330641
      16B1u    0.344631    10B2u    0.392748    10B3u    0.392748
      21Ag     0.413583     8B3g    0.501427     8B2g    0.501427
      22Ag     0.537373    17B1u    0.598198    18B1u    0.653982
      11B2u    0.700619    11B3u    0.700619     9B3g    0.733177
       9B2g    0.733177    12B2u    0.794678    12B3u    0.794678
      23Ag     0.818984     5B1g    0.899407    24Ag     0.899450
       3Au     0.945405    19B1u    0.945439    20B1u    0.945922
      10B3g    0.948048    10B2g    0.948048    25Ag     0.999977
      13B2u    1.002404    13B3u    1.002404     6B1g    1.011188
      26Ag     1.011237    11B3g    1.195611    11B2g    1.195611
      21B1u    1.231827    27Ag     1.515136    14B2u    2.953114
      14B3u    2.953114    28Ag     3.033971    22B1u    3.035601
      12B3g    3.053115    12B2g    3.053115    15B2u    3.069021
      15B3u    3.069021    23B1u    3.117275    29Ag     3.199941
      30Ag     3.380398    16B2u    3.390344    16B3u    3.390344
      24B1u    3.397264    13B3g    3.398019    13B2g    3.398019
       4Au     3.414970    25B1u    3.415018     7B1g    3.416583
      31Ag     3.416627    17B2u    3.421251    17B3u    3.421251
      14B3g    3.421254    14B2g    3.421254     5Au     3.428868
      26B1u    3.428938    18B3u    3.434337    18B2u    3.434337
      19B2u    3.450510    19B3u    3.450510    27B1u    3.464143
      32Ag     3.558240     8B1g    3.601963    33Ag     3.601982
       6Au     3.628842    28B1u    3.628859    15B3g    3.668017
      15B2g    3.668017     9B1g    3.672239    34Ag     3.672261
      29B1u    3.731009    20B2u    3.735476    20B3u    3.735476
      16B3g    3.822181    16B2g    3.822181    35Ag     3.956245
      30B1u    4.063369    36Ag     4.410670    21B3u   12.705017
      21B2u   12.705017    17B2g   12.705774    17B3g   12.705774
      31B1u   12.705874     7Au    12.705972    32B1u   12.705994
      10B1g   12.706028    37Ag    12.706050    38Ag    12.706240
      22B2u   12.707430    22B3u   12.707430    18B3g   12.707430
      18B2g   12.707430    33B1u   12.708786    39Ag    12.708786
      11B1g   12.708929     8Au    12.708929    19B2g   12.717593
      19B3g   12.717593    12B1g   12.718238    40Ag    12.718297
      20B3g   12.720353    20B2g   12.720353    41Ag    12.720674
      42Ag    12.722754    13B1g   12.722956    23B2u   12.865375
      23B3u   12.865375     9Au    12.867224    34B1u   12.867356
      14B1g   12.868310    43Ag    12.868441    24B3u   12.868543
      24B2u   12.868543    21B3g   12.868543    21B2g   12.868543
      35B1u   12.871193    10Au    12.877981    36B1u   12.878175
      25B2u   12.878680    25B3u   12.878680    22B3g   12.881643
      22B2g   12.881643    26B3u   12.894396    26B2u   12.894396
      44Ag    12.956665    37B1u   12.991673

    Final Occupation by Irrep:
             Ag   B1g   B2g   B3g    Au   B1u   B2u   B3u
    DOCC [    13,    2,    4,    4,    1,    9,    5,    5 ]
    SOCC [     0,    0,    0,    0,    0,    1,    0,    0 ]

  @DF-UKS Final Energy: -4922.35770626935118

   => Energetics <=

    Nuclear Repulsion Energy =            485.6163288595016070
    One-Electron Energy =               -7832.9631521602150315
    Two-Electron Energy =                2540.8001874817778116
    DFT Exchange-Correlation Energy =    -115.8109771204166805
    Empirical Dispersion Energy =          -0.0000933300000000
    VV10 Nonlocal Energy =                  0.0000000000000000
    Total Energy =                      -4922.3577062693511834

  UHF NO Occupations:
  HONO-2 :    4B2g 1.9999037
  HONO-1 :   13 Ag 1.9865250
  HONO-0 :   10B1u 1.0000000
  LUNO+0 :   14 Ag 0.0134750
  LUNO+1 :    5B2g 0.0000963
  LUNO+2 :    5B3g 0.0000963
  LUNO+3 :   11B1u 0.0000827

Computation Completed

Properties will be evaluated at   0.000000,   0.000000,   0.000000 [a0]

Properties computed using the SCF density matrix

  Nuclear Dipole Moment: [e a0]
     X:     0.0000      Y:     0.0000      Z:     0.0000

  Electronic Dipole Moment: [e a0]
     X:     0.0000      Y:     0.0000      Z:     0.0000

  Dipole Moment: [e a0]
     X:     0.0000      Y:     0.0000      Z:     0.0000     Total:     0.0000

  Dipole Moment: [D]
     X:     0.0000      Y:     0.0000      Z:     0.0000     Total:     0.0000

*** tstop() called on bp1-compute00157.data.bp.acrc.priv at Thu Oct 28 15:29:28 2021
Module time:
	user time   =     370.08 seconds =       6.17 minutes
	system time =      23.31 seconds =       0.39 minutes
	total time  =         17 seconds =       0.28 minutes
Total time:
	user time   =     370.08 seconds =       6.17 minutes
	system time =      23.31 seconds =       0.39 minutes
	total time  =         17 seconds =       0.28 minutes

    Psi4 stopped on: Thursday, 28 October 2021 03:29PM
    Psi4 wall time for execution: 0:00:16.98

*** Psi4 exiting successfully. Buy a developer a beer!
