                               Psi4 1.4.1 release

  ==> Input File <==

--------------------------------------------------------------------------
memory 144 GB

molecule {
2 2
Cu      -0.000000    1.387730   -0.507533
Cu       1.201809   -0.693865   -0.507533
Cu      -1.201809   -0.693865   -0.507533
Cu       0.000000    0.000000    1.576640
H        0.000000    0.000000   -1.567185
 }

set reference uks
set basis Def2-TZVPPD

energy("MN15-D3BJ")
--------------------------------------------------------------------------

    Molecular point group: cs

    Geometry (in Angstrom), charge = 2, multiplicity = 2:

       Center              X                  Y                   Z               Mass
    ------------   -----------------  -----------------  -----------------  -----------------
         CU          -1.387730000000     0.514739732039     0.000000000000    62.929597720000
         CU           0.693865000000     0.514739732039     1.201809000000    62.929597720000
         CU           0.693865000000     0.514739732039    -1.201809000000    62.929597720000
         CU           0.000000000000    -1.569433267961     0.000000000000    62.929597720000
         H            0.000000000000     1.574391732039     0.000000000000     1.007825032230

  Charge       = 2
  Multiplicity = 2
  Basis Set: DEF2-TZVPPD
    Blend: DEF2-TZVPPD
  Basis Set: (DEF2-TZVPPD AUX)
    Blend: DEF2-UNIVERSAL-JKFIT

    Orbital Energies [Eh]
    ---------------------

    Alpha Occupied:

       1App -321.129430     1Ap  -321.129429     2Ap  -321.129416
       3Ap  -321.102918     2App  -38.298904     4Ap   -38.298904
       5Ap   -38.298712     6Ap   -38.270692     3App  -34.151041
       7Ap   -34.151040     8Ap   -34.151025     4App  -34.148213
       9Ap   -34.148213    10Ap   -34.148203     5App  -34.147680
      11Ap   -34.147661     6App  -34.147661    12Ap   -34.122016
       7App  -34.120237    13Ap   -34.120237    14Ap    -4.519196
       8App   -4.518655    15Ap    -4.518654    16Ap    -4.491691
      17Ap    -3.193386     9App   -3.191043    18Ap    -3.191042
      19Ap    -3.189243    10App   -3.189242    20Ap    -3.189163
      11App   -3.188479    12App   -3.188368    21Ap    -3.188366
      22Ap    -3.162516    13App   -3.160426    23Ap    -3.160425
      24Ap    -0.875713    25Ap    -0.805715    26Ap    -0.781904
      14App   -0.781899    15App   -0.772616    27Ap    -0.772612
      28Ap    -0.772037    29Ap    -0.758892    16App   -0.758892
      30Ap    -0.754592    17App   -0.748098    31Ap    -0.748093
      18App   -0.745826    32Ap    -0.744210    19App   -0.744206
      20App   -0.726139    21App   -0.726052    33Ap    -0.726047
      34Ap    -0.719743    35Ap    -0.716042    22App   -0.716039
      36Ap    -0.615997

    Alpha Virtual:

      23App   -0.447662    37Ap    -0.447659    38Ap    -0.355456
      39Ap    -0.324993    40Ap    -0.312913    24App   -0.312911
      25App   -0.300679    41Ap    -0.300678    42Ap    -0.177480
      26App   -0.162083    43Ap    -0.162081    44Ap    -0.160888
      45Ap    -0.159372    27App   -0.159372    28App   -0.146378
      46Ap    -0.126120    47Ap    -0.113244    48Ap    -0.104081
      29App   -0.104081    30App   -0.100766    49Ap    -0.100766
      50Ap    -0.098968    31App   -0.098372    51Ap    -0.098372
      52Ap    -0.044350    53Ap    -0.043704    32App   -0.043704
      33App   -0.037462    34App   -0.034269    54Ap    -0.034264
      55Ap    -0.009077    56Ap     0.005517    57Ap     0.010712
      35App    0.010712    36App    0.031457    58Ap     0.031459
      37App    0.037549    59Ap     0.037550    38App    0.045446
      60Ap     0.045759    61Ap     0.064247    62Ap     0.095999
      39App    0.096001    40App    0.100763    63Ap     0.100764
      64Ap     0.131272    65Ap     0.150505    41App    0.156005
      66Ap     0.156013    42App    0.169930    67Ap     0.169930
      43App    0.177527    44App    0.186005    68Ap     0.186016
      69Ap     0.314682    70Ap     0.385018    45App    0.391557
      71Ap     0.391560    72Ap     0.417401    46App    0.417405
      73Ap     0.424041    74Ap     0.467545    47App    0.467558
      75Ap     0.505048    48App    0.510280    76Ap     0.510285
      77Ap     0.540731    78Ap     0.563527    49App    0.563533
      50App    0.590049    79Ap     0.590054    51App    0.598272
      80Ap     0.603843    81Ap     0.634551    52App    0.634559
      53App    0.654632    82Ap     0.669020    54App    0.669023
      83Ap     0.701038    84Ap     0.712154    55App    0.712171
      85Ap     0.834830    56App    0.841073    86Ap     0.841129
      57App    0.865989    87Ap     0.866026    58App    0.897570
      59App    1.010131    88Ap     1.010247    89Ap     1.090970
      90Ap     2.197450    91Ap     2.513837    60App    2.514025
      92Ap     2.546813    61App    2.556658    93Ap     2.556707
      94Ap     2.591209    62App    2.614829    95Ap     2.614845
      96Ap     2.698634    63App    2.698739    97Ap     2.717861
      64App    2.734193    98Ap     2.734202    65App    2.776778
      66App    2.844468    99Ap     2.844492   100Ap     2.856940
     101Ap     2.935463    67App    2.969925   102Ap     2.969936
      68App    2.977804   103Ap     2.977805    69App    2.985658
     104Ap     2.987113    70App    2.987132    71App    2.990188
     105Ap     2.992324    72App    2.992339   106Ap     2.995356
     107Ap     3.004537    73App    3.006787   108Ap     3.006799
      74App    3.008584    75App    3.036838   109Ap     3.036854
     110Ap     3.040309    76App    3.040615    77App    3.067420
     111Ap     3.067441   112Ap     3.073363   113Ap     3.125159
     114Ap     3.160134    78App    3.160142   115Ap     3.164125
      79App    3.184166   116Ap     3.184167    80App    3.208144
     117Ap     3.208151    81App    3.284290    82App    3.288823
     118Ap     3.288830   119Ap     3.289600   120Ap     3.321300
      83App    3.321312   121Ap     3.371005    84App    3.371027
     122Ap     3.390606   123Ap     3.421408   124Ap     3.453689
      85App    3.453716   125Ap     3.485879    86App    3.485886
      87App    3.525309    88App    3.569688   126Ap     3.569699
     127Ap     3.585461   128Ap     3.861625    89App    4.000167
     129Ap     4.000282   130Ap     4.158117    90App    4.285395
     131Ap     4.285693    91App   12.273448   132Ap    12.274024
      92App   12.274064   133Ap    12.274573    93App   12.274681
     134Ap    12.274729    94App   12.274909   135Ap    12.275026
      95App   12.275032   136Ap    12.275264    96App   12.275388
      97App   12.275624   137Ap    12.275687    98App   12.275779
     138Ap    12.275880    99App   12.276430   139Ap    12.276433
     140Ap    12.276619   141Ap    12.278194   100App   12.278220
     101App   12.278318   102App   12.278616   142Ap    12.278640
     143Ap    12.278723   144Ap    12.280026   103App   12.280033
     145Ap    12.280614   146Ap    12.302659   104App   12.302916
     105App   12.303048   147Ap    12.303053   148Ap    12.303235
     106App   12.303448   149Ap    12.303671   107App   12.305446
     150Ap    12.305464   108App   12.436884   151Ap    12.438781
     152Ap    12.438846   109App   12.438865   110App   12.440019
     153Ap    12.442405   111App   12.442409   154Ap    12.444462
     112App   12.444495   113App   12.446824   155Ap    12.446832
     156Ap    12.452616   114App   12.454404   157Ap    12.454408
     115App   12.465769   158Ap    12.465951   159Ap    12.467217
     116App   12.467260   160Ap    12.469990   161Ap    12.493963
     162Ap    12.500894   117App   12.500943   118App   12.504008
     163Ap    12.514505   119App   12.514533   120App   12.587708
     164Ap    12.587746   165Ap    12.666838

    Beta Occupied:

       1App -321.129435     1Ap  -321.129434     2Ap  -321.129421
       3Ap  -321.102455     2App  -38.298245     4Ap   -38.298244
       5Ap   -38.298052     6Ap   -38.270941     3App  -34.150554
       7Ap   -34.150553     8Ap   -34.150533     4App  -34.146976
       9Ap   -34.146958     5App  -34.146957     6App  -34.146889
      10Ap   -34.146888    11Ap   -34.146875    12Ap   -34.123502
       7App  -34.120661    13Ap   -34.120661    14Ap    -4.518460
       8App   -4.517923    15Ap    -4.517923    16Ap    -4.490744
      17Ap    -3.191164     9App   -3.189599    18Ap    -3.189598
      10App   -3.187581    11App   -3.187283    19Ap    -3.187281
      20Ap    -3.187002    12App   -3.186685    21Ap    -3.186684
      22Ap    -3.162776    13App   -3.161395    23Ap    -3.161394
      24Ap    -0.854143    25Ap    -0.798847    26Ap    -0.781086
      14App   -0.781082    15App   -0.769082    27Ap    -0.769078
      28Ap    -0.768051    29Ap    -0.756464    16App   -0.756462
      17App   -0.745125    30Ap    -0.744735    31Ap    -0.742689
      18App   -0.742688    19App   -0.734777    32Ap    -0.734775
      20App   -0.726037    33Ap    -0.726029    21App   -0.724420
      34Ap    -0.717017    35Ap    -0.713488    22App   -0.713485

    Beta Virtual:

      36Ap    -0.490129    23App   -0.436559    37Ap    -0.436554
      38Ap    -0.339130    39Ap    -0.311260    24App   -0.296177
      40Ap    -0.296177    25App   -0.293443    41Ap    -0.293442
      42Ap    -0.166207    26App   -0.160393    43Ap    -0.160392
      44Ap    -0.149824    27App   -0.149822    45Ap    -0.145919
      28App   -0.144459    46Ap    -0.126742    47Ap    -0.106804
      29App   -0.104563    48Ap    -0.104563    49Ap    -0.100009
      30App   -0.100008    50Ap    -0.095097    51Ap    -0.084013
      31App   -0.084009    52Ap    -0.043589    32App   -0.043588
      33App   -0.039015    53Ap    -0.036505    34App   -0.032284
      54Ap    -0.032281    55Ap    -0.002453    56Ap     0.016523
      35App    0.016525    57Ap     0.017272    58Ap     0.038024
      36App    0.038026    59Ap     0.045787    37App    0.045792
      60Ap     0.047489    38App    0.052823    61Ap     0.073342
      62Ap     0.099553    39App    0.099554    63Ap     0.105125
      40App    0.105126    64Ap     0.136973    65Ap     0.157794
      41App    0.158921    66Ap     0.158924    67Ap     0.172522
      42App    0.172525    43App    0.176908    44App    0.192848
      68Ap     0.192850    69Ap     0.322023    70Ap     0.390648
      71Ap     0.400285    45App    0.400296    72Ap     0.419569
      46App    0.419570    73Ap     0.429284    47App    0.474161
      74Ap     0.474175    75Ap     0.507733    48App    0.511156
      76Ap     0.511160    77Ap     0.543251    49App    0.565317
      78Ap     0.565319    50App    0.596377    79Ap     0.596379
      51App    0.598622    80Ap     0.612090    52App    0.637219
      81Ap     0.637222    53App    0.656504    54App    0.670010
      82Ap     0.670016    83Ap     0.705705    55App    0.716202
      84Ap     0.716211    56App    0.842435    85Ap     0.842467
      86Ap     0.846614    87Ap     0.872555    57App    0.872560
      58App    0.896574    59App    1.027062    88Ap     1.027112
      89Ap     1.108679    90Ap     2.209309    91Ap     2.526229
      60App    2.526378    92Ap     2.566803    61App    2.570576
      93Ap     2.570645    94Ap     2.599912    62App    2.630915
      95Ap     2.630984    96Ap     2.707519    63App    2.707623
      97Ap     2.724706    64App    2.735870    98Ap     2.735879
      65App    2.776594    66App    2.849173    99Ap     2.849186
     100Ap     2.861541   101Ap     2.939249    67App    2.971275
     102Ap     2.971284    68App    2.979587   103Ap     2.979597
      69App    2.986608   104Ap     2.988004    70App    2.988021
      71App    2.991168   105Ap     2.992701    72App    2.992719
     106Ap     2.998953   107Ap     3.008924    73App    3.010308
     108Ap     3.010309    74App    3.013115    75App    3.040828
     109Ap     3.040838    76App    3.040926   110Ap     3.044087
      77App    3.070067   111Ap     3.070091   112Ap     3.072814
     113Ap     3.128079   114Ap     3.158671   115Ap     3.162715
      78App    3.162725    79App    3.190420   116Ap     3.190500
      80App    3.212516   117Ap     3.212520    81App    3.287158
      82App    3.290601   118Ap     3.290629   119Ap     3.304085
     120Ap     3.325611    83App    3.325626   121Ap     3.377638
      84App    3.377810   122Ap     3.395589   123Ap     3.437148
     124Ap     3.464079    85App    3.464116    86App    3.487167
     125Ap     3.487168    87App    3.527070   126Ap     3.575388
      88App    3.575400   127Ap     3.596792   128Ap     3.872008
      89App    4.026880   129Ap     4.026995   130Ap     4.167770
      90App    4.316395   131Ap     4.316892    91App   12.274491
     132Ap    12.274562    92App   12.274737   133Ap    12.274757
     134Ap    12.275386    93App   12.275428    94App   12.275503
      95App   12.276153   135Ap    12.276158   136Ap    12.276582
      96App   12.276674    97App   12.276810    98App   12.276837
     137Ap    12.276947   138Ap    12.277380   139Ap    12.277473
      99App   12.277563   100App   12.277865   140Ap    12.277937
     101App   12.277980   141Ap    12.278100   102App   12.278256
     142Ap    12.278338   143Ap    12.278604   103App   12.282302
     144Ap    12.282320   145Ap    12.283240   146Ap    12.301354
     104App   12.301547   105App   12.301580   147Ap    12.301810
     148Ap    12.301857   106App   12.302097   149Ap    12.302217
     107App   12.304294   150Ap    12.304313   108App   12.436861
     151Ap    12.439332   109App   12.439357   152Ap    12.440641
     110App   12.441126   153Ap    12.443308   111App   12.443309
     154Ap    12.446384   112App   12.446400   155Ap    12.447665
     113App   12.447672   156Ap    12.453177   114App   12.456185
     157Ap    12.456187   115App   12.465826   158Ap    12.466173
     159Ap    12.466944   116App   12.466989   160Ap    12.469938
     161Ap    12.496006   162Ap    12.501335   117App   12.501387
     118App   12.505902   163Ap    12.516048   119App   12.516076
     120App   12.590310   164Ap    12.590352   165Ap    12.669051

    Final Occupation by Irrep:
             Ap   App
    DOCC [    35,   22 ]
    SOCC [     1,    0 ]

  @DF-UKS Final Energy: -6563.11121586555510

   => Energetics <=

    Nuclear Repulsion Energy =           1119.9202327796770078
    One-Electron Energy =              -11339.4866453948088747
    Two-Electron Energy =                3810.8749645072380190
    DFT Exchange-Correlation Energy =    -154.4195387376616679
    Empirical Dispersion Energy =          -0.0002290200000000
    VV10 Nonlocal Energy =                  0.0000000000000000
    Total Energy =                      -6563.1112158655541862

  UHF NO Occupations:
  HONO-2 :   34 Ap 1.9987355
  HONO-1 :   35 Ap 1.9985714
  HONO-0 :   36 Ap 1.0000000
  LUNO+0 :   37 Ap 0.0014286
  LUNO+1 :   38 Ap 0.0012645
  LUNO+2 :   23App 0.0012632
  LUNO+3 :   39 Ap 0.0001297

Computation Completed

Properties will be evaluated at   0.000000,   0.000000,   0.000000 [a0]

Properties computed using the SCF density matrix

  Nuclear Dipole Moment: [e a0]
     X:    -0.0000      Y:     1.5934      Z:     0.0000

  Electronic Dipole Moment: [e a0]
     X:     0.0000      Y:    -1.6232      Z:     0.0000

  Dipole Moment: [e a0]
     X:     0.0000      Y:    -0.0298      Z:     0.0000     Total:     0.0298

  Dipole Moment: [D]
     X:     0.0001      Y:    -0.0758      Z:     0.0000     Total:     0.0758

*** tstop() called on bc4login1.bc4.acrc.priv at Tue Nov  2 14:12:45 2021
Module time:
	user time   =     524.34 seconds =       8.74 minutes
	system time =      27.67 seconds =       0.46 minutes
	total time  =         47 seconds =       0.78 minutes
Total time:
	user time   =     524.34 seconds =       8.74 minutes
	system time =      27.67 seconds =       0.46 minutes
	total time  =         47 seconds =       0.78 minutes

    Psi4 stopped on: Tuesday, 02 November 2021 02:12PM
    Psi4 wall time for execution: 0:00:47.27

*** Psi4 exiting successfully. Buy a developer a beer!
