                               Psi4 1.4.1 release

  ==> Input File <==

--------------------------------------------------------------------------
memory 144 GB

molecule {
0 1
Cu      -0.387876   -0.085256    2.052405
Cu       1.110029    0.096858    0.214111
Cu       0.386859    0.085217   -2.052443
Cu      -1.109011   -0.096818   -0.214073
 }

set basis Def2-TZVPPD

energy("MN15-D3BJ")
--------------------------------------------------------------------------

    Molecular point group: c1

    Geometry (in Angstrom), charge = 0, multiplicity = 1:

       Center              X                  Y                   Z               Mass
    ------------   -----------------  -----------------  -----------------  -----------------
         CU          -0.387876250000    -0.085256250000     2.052405000000    62.929597720000
         CU           1.110028750000     0.096857750000     0.214111000000    62.929597720000
         CU           0.386858750000     0.085216750000    -2.052443000000    62.929597720000
         CU          -1.109011250000    -0.096818250000    -0.214073000000    62.929597720000

  Charge       = 0
  Multiplicity = 1
  Basis Set: DEF2-TZVPPD
    Blend: DEF2-TZVPPD
  Basis Set: (DEF2-TZVPPD AUX)
    Blend: DEF2-UNIVERSAL-JKFIT

    Orbital Energies [Eh]
    ---------------------

    Doubly Occupied:

       1A   -320.711815     2A   -320.711797     3A   -320.686781
       4A   -320.686765     5A    -37.884242     6A    -37.884081
       7A    -37.859829     8A    -37.859717     9A    -33.734981
      10A    -33.734969    11A    -33.733948    12A    -33.733939
      13A    -33.732165    14A    -33.732155    15A    -33.710921
      16A    -33.710903    17A    -33.709618    18A    -33.709600
      19A    -33.707484    20A    -33.707468    21A     -4.103650
      22A     -4.102954    23A     -4.077566    24A     -4.077525
      25A     -2.778006    26A     -2.772780    27A     -2.772749
      28A     -2.772185    29A     -2.772109    30A     -2.771676
      31A     -2.748946    32A     -2.748787    33A     -2.746402
      34A     -2.746333    35A     -2.744115    36A     -2.744098
      37A     -0.379933    38A     -0.379457    39A     -0.365254
      40A     -0.357938    41A     -0.357254    42A     -0.354246
      43A     -0.342379    44A     -0.335104    45A     -0.327374
      46A     -0.326072    47A     -0.322201    48A     -0.313597
      49A     -0.313571    50A     -0.312087    51A     -0.308506
      52A     -0.308280    53A     -0.306253    54A     -0.303676
      55A     -0.301255    56A     -0.292725    57A     -0.291269
      58A     -0.202638

  @DF-RKS Final Energy: -6563.20386614162908

   => Energetics <=

    Nuclear Repulsion Energy =           1051.1684347552327381
    One-Electron Energy =              -11250.6111655165786942
    Two-Electron Energy =                3790.6917247251376466
    DFT Exchange-Correlation Energy =    -154.4526746354200384
    Empirical Dispersion Energy =          -0.0001854700000000
    VV10 Nonlocal Energy =                  0.0000000000000000
    Total Energy =                      -6563.2038661416290779

  Dipole Moment: [D]
     X:     0.0020      Y:     0.0002      Z:    -0.0000     Total:     0.0020

*** Psi4 exiting successfully. Buy a developer a beer!
