                               Psi4 1.4.1 release

  ==> Input File <==

--------------------------------------------------------------------------
memory 144 GB

molecule {
2 2
Cu      -0.000000    1.401870   -0.545062
Cu       1.214055   -0.700935   -0.545062
Cu      -1.214055   -0.700935   -0.545062
Cu       0.000000    0.000000    1.530006
H        0.000000    0.000000    3.050192
 }

set reference uks
set basis Def2-TZVPPD

energy("MN15-D3BJ")
--------------------------------------------------------------------------

    Molecular point group: cs

    Geometry (in Angstrom), charge = 2, multiplicity = 2:

       Center              X                  Y                   Z               Mass
    ------------   -----------------  -----------------  -----------------  -----------------
         CU          -1.401870000000     0.531035456593     0.000000000000    62.929597720000
         CU           0.700935000000     0.531035456593     1.214055000000    62.929597720000
         CU           0.700935000000     0.531035456593    -1.214055000000    62.929597720000
         CU          -0.000000000000    -1.544032543407     0.000000000000    62.929597720000
         H           -0.000000000000    -3.064218543407     0.000000000000     1.007825032230

  Charge       = 2
  Multiplicity = 2
  Basis Set: DEF2-TZVPPD
    Blend: DEF2-TZVPPD
  Basis Set: (DEF2-TZVPPD AUX)
    Blend: DEF2-UNIVERSAL-JKFIT

    Orbital Energies [Eh]
    ---------------------

    Alpha Occupied:

       1Ap  -321.137962     2Ap  -321.111667     1App -321.111666
       3Ap  -321.111655     4Ap   -38.314647     5Ap   -38.279413
       2App  -38.279412     6Ap   -38.279250     7Ap   -34.172758
       8Ap   -34.158849     3App  -34.158848     9Ap   -34.131716
       4App  -34.131715    10Ap   -34.131700     5App  -34.128903
       6App  -34.128885    11Ap   -34.128884    12Ap   -34.128751
       7App  -34.128750    13Ap   -34.128740    14Ap    -4.530471
      15Ap    -4.500221     8App   -4.499765    16Ap    -4.499764
      17Ap    -3.208808     9App   -3.195780    18Ap    -3.195780
      19Ap    -3.172594    10App   -3.171155    20Ap    -3.171155
      21Ap    -3.170545    11App   -3.170360    22Ap    -3.170359
      12App   -3.169302    13App   -3.168909    23Ap    -3.168908
      24Ap    -0.829022    25Ap    -0.780805    14App   -0.780799
      26Ap    -0.773962    15App   -0.767583    27Ap    -0.767582
      28Ap    -0.761771    29Ap    -0.756594    16App   -0.756594
      30Ap    -0.750624    17App   -0.740462    31Ap    -0.740459
      18App   -0.728941    19App   -0.728373    32Ap    -0.728368
      33Ap    -0.725102    20App   -0.725094    21App   -0.718802
      34Ap    -0.718801    35Ap    -0.716192    22App   -0.708078
      36Ap    -0.681671

    Alpha Virtual:

      23App   -0.437453    37Ap    -0.437451    38Ap    -0.410208
      39Ap    -0.304934    40Ap    -0.303199    24App   -0.303198
      25App   -0.292704    41Ap    -0.292704    42Ap    -0.196700
      43Ap    -0.169243    26App   -0.169243    44Ap    -0.156044
      45Ap    -0.155496    27App   -0.155495    28App   -0.143116
      46Ap    -0.130460    47Ap    -0.108854    29App   -0.101297
      48Ap    -0.101297    49Ap    -0.098915    30App   -0.098915
      50Ap    -0.094444    31App   -0.088634    51Ap    -0.088629
      52Ap    -0.060089    32App   -0.043405    53Ap    -0.043405
      33App   -0.036312    34App   -0.030722    54Ap    -0.030722
      55Ap    -0.025894    56Ap    -0.008799    35App   -0.008798
      57Ap     0.027945    36App    0.030935    58Ap     0.030937
      37App    0.038421    59Ap     0.038421    38App    0.052145
      60Ap     0.057324    61Ap     0.082873    62Ap     0.090736
      39App    0.090736    63Ap     0.104085    40App    0.104086
      41App    0.133880    64Ap     0.133883    65Ap     0.148520
      66Ap     0.173833    42App    0.173835    43App    0.180619
      67Ap     0.196925    44App    0.196930    68Ap     0.211059
      69Ap     0.238315    70Ap     0.360235    71Ap     0.409929
      45App    0.409937    46App    0.416517    72Ap     0.416524
      73Ap     0.461267    47App    0.466134    74Ap     0.466135
      75Ap     0.493586    76Ap     0.497567    77Ap     0.512879
      48App    0.512879    78Ap     0.546706    49App    0.546707
      79Ap     0.596883    50App    0.596888    51App    0.601130
      52App    0.623154    80Ap     0.623164    81Ap     0.642191
      53App    0.664580    82Ap     0.666373    54App    0.666382
      55App    0.688730    83Ap     0.688734    84Ap     0.689827
      85Ap     0.734620    56App    0.734629    57App    0.877436
      86Ap     0.877462    87Ap     0.877635    58App    0.903950
      59App    0.956789    88Ap     0.956791    89Ap     1.084649
      90Ap     2.149051    91Ap     2.352076    60App    2.514627
      92Ap     2.514638    61App    2.612336    93Ap     2.612375
      94Ap     2.628965    62App    2.638685    95Ap     2.638686
      96Ap     2.670028    63App    2.672312    97Ap     2.672450
      64App    2.760249    98Ap     2.760261    65App    2.798406
      99Ap     2.830244   100Ap     2.848264    66App    2.848268
     101Ap     2.939632   102Ap     2.971602   103Ap     2.978133
      67App    2.978135    68App    2.988648   104Ap     2.992313
     105Ap     2.996807   106Ap     2.997585    69App    2.997605
      70App    3.001649   107Ap     3.001662    71App    3.002240
     108Ap     3.002933    72App    3.002974    73App    3.005530
     109Ap     3.006338    74App    3.006349   110Ap     3.016985
      75App    3.016985    76App    3.031610   111Ap     3.031610
      77App    3.044208   112Ap     3.053394    78App    3.068592
     113Ap     3.068612   114Ap     3.085463   115Ap     3.162545
      79App    3.162563   116Ap     3.217601    80App    3.222016
     117Ap     3.222044    81App    3.227538   118Ap     3.227548
     119Ap     3.236877    82App    3.281513   120Ap     3.281538
      83App    3.298503   121Ap     3.303976    84App    3.304007
     122Ap     3.404460   123Ap     3.421966    85App    3.421972
      86App    3.472338   124Ap     3.472345   125Ap     3.492357
      87App    3.537379   126Ap     3.539947    88App    3.539953
      89App    3.572008   127Ap     3.572035   128Ap     3.667102
      90App    3.881957   129Ap     3.882016   130Ap     3.935774
     131Ap     4.580710   132Ap    12.268084    91App   12.268158
     133Ap    12.270657    92App   12.270876   134Ap    12.271815
      93App   12.273719   135Ap    12.274297    94App   12.274383
     136Ap    12.274428   137Ap    12.292991   138Ap    12.293156
      95App   12.293169   139Ap    12.293259    96App   12.293269
      97App   12.293344   140Ap    12.293485    98App   12.293582
      99App   12.293624   141Ap    12.293674   142Ap    12.293709
     100App   12.293742   101App   12.293867   102App   12.293946
     143Ap    12.293947   144Ap    12.294015   103App   12.294152
     145Ap    12.294154   104App   12.295094   146Ap    12.295170
     147Ap    12.295229   148Ap    12.295502   149Ap    12.295542
     105App   12.295546   106App   12.295583   107App   12.295640
     150Ap    12.295641   108App   12.433401   151Ap    12.434813
     152Ap    12.438988   109App   12.439018   153Ap    12.454631
     110App   12.454637   111App   12.455032   154Ap    12.456066
     112App   12.457047   155Ap    12.457058   156Ap    12.458287
     113App   12.458322   114App   12.459183   157Ap    12.459296
     158Ap    12.463277   159Ap    12.463472   115App   12.463499
     116App   12.465431   160Ap    12.465478   161Ap    12.473208
     117App   12.473211   162Ap    12.499187   118App   12.499257
     163Ap    12.504179   119App   12.515717   164Ap    12.523570
     120App   12.523605   165Ap    12.772946

    Beta Occupied:

       1Ap  -321.137767     2Ap  -321.111637     1App -321.111635
       3Ap  -321.111625     4Ap   -38.313327     5Ap   -38.279380
       2App  -38.279379     6Ap   -38.279217     7Ap   -34.165639
       8Ap   -34.160094     3App  -34.160093     9Ap   -34.131454
       4App  -34.131453    10Ap   -34.131438    11Ap   -34.128941
       5App  -34.128941     6App  -34.128937    12Ap   -34.128930
       7App  -34.128918    13Ap   -34.128917    14Ap    -4.528031
      15Ap    -4.500109     8App   -4.499651    16Ap    -4.499651
      17Ap    -3.206788     9App   -3.190806    18Ap    -3.190806
      19Ap    -3.172758    10App   -3.171165    20Ap    -3.171165
      21Ap    -3.170179    11App   -3.170025    22Ap    -3.170024
      12App   -3.169275    13App   -3.169005    23Ap    -3.169003
      24Ap    -0.799525    25Ap    -0.775889    14App   -0.775884
      26Ap    -0.769234    15App   -0.765263    27Ap    -0.765262
      16App   -0.755869    28Ap    -0.755868    29Ap    -0.749590
      30Ap    -0.747726    17App   -0.738891    31Ap    -0.738888
      18App   -0.728708    19App   -0.728045    32Ap    -0.728041
      33Ap    -0.724828    20App   -0.724821    34Ap    -0.716566
      21App   -0.716566    22App   -0.708548    35Ap    -0.696297

    Beta Virtual:

      36Ap    -0.506492    23App   -0.436400    37Ap    -0.436399
      38Ap    -0.392460    39Ap    -0.303656    40Ap    -0.295258
      24App   -0.295256    41Ap    -0.291665    25App   -0.291664
      42Ap    -0.176555    43Ap    -0.158027    26App   -0.158027
      44Ap    -0.149759    27App   -0.149758    45Ap    -0.144645
      28App   -0.143361    46Ap    -0.123294    47Ap    -0.101187
      48Ap    -0.100108    29App   -0.100108    49Ap    -0.098568
      30App   -0.098568    50Ap    -0.093536    51Ap    -0.085069
      31App   -0.085068    52Ap    -0.055549    53Ap    -0.040931
      32App   -0.040930    33App   -0.036402    54Ap    -0.028262
      34App   -0.028261    55Ap    -0.015580    56Ap     0.006505
      35App    0.006508    57Ap     0.032160    58Ap     0.035929
      36App    0.035931    59Ap     0.048010    37App    0.048011
      38App    0.051488    60Ap     0.078679    61Ap     0.099401
      39App    0.099403    62Ap     0.102547    63Ap     0.105871
      40App    0.105873    64Ap     0.148137    41App    0.148138
      65Ap     0.151132    66Ap     0.177965    42App    0.177966
      43App    0.180489    67Ap     0.204809    44App    0.204816
      68Ap     0.222550    69Ap     0.285551    70Ap     0.366142
      45App    0.416082    71Ap     0.416088    46App    0.418534
      72Ap     0.418538    73Ap     0.463507    74Ap     0.466943
      47App    0.466944    75Ap     0.501660    76Ap     0.504992
      48App    0.523169    77Ap     0.523172    78Ap     0.555772
      49App    0.555775    50App    0.600884    79Ap     0.601262
      51App    0.601265    52App    0.637606    80Ap     0.637612
      81Ap     0.650506    53App    0.664527    82Ap     0.669643
      54App    0.669655    83Ap     0.695729    55App    0.695732
      84Ap     0.709533    56App    0.753601    85Ap     0.753603
      57App    0.880885    86Ap     0.880887    58App    0.904698
      87Ap     0.905025    59App    0.984665    88Ap     0.984666
      89Ap     1.144547    90Ap     2.267571    91Ap     2.449099
      60App    2.575902    92Ap     2.575924    93Ap     2.627431
      61App    2.627448    94Ap     2.634219    62App    2.666893
      95Ap     2.666908    96Ap     2.678969    97Ap     2.759466
      63App    2.759471    64App    2.798530    98Ap     2.843366
      99Ap     2.857998    65App    2.857999   100Ap     2.921072
      66App    2.921132   101Ap     2.942689   102Ap     2.973837
     103Ap     2.981084    67App    2.981090   104Ap     2.995038
      68App    2.998717   105Ap     2.999815    69App    2.999827
      70App    3.002001   106Ap     3.002014    71App    3.002834
     107Ap     3.003962    72App    3.004000   108Ap     3.006227
      73App    3.006409   109Ap     3.006855    74App    3.006867
     110Ap     3.026313    75App    3.026328    76App    3.044815
     111Ap     3.055257    77App    3.065898   112Ap     3.065917
     113Ap     3.106705   114Ap     3.129854    78App    3.129947
     115Ap     3.170636    79App    3.170662   116Ap     3.224343
      80App    3.232343   117Ap     3.232353   118Ap     3.247486
      81App    3.282702   119Ap     3.282720    82App    3.298873
     120Ap     3.304169    83App    3.304194    84App    3.361528
     121Ap     3.361534   122Ap     3.425239    85App    3.438258
     123Ap     3.438263   124Ap     3.474372    86App    3.474373
     125Ap     3.503079    87App    3.537951   126Ap     3.547939
      88App    3.547939    89App    3.854481   127Ap     3.854498
     128Ap     3.872350    90App    3.888682   129Ap     3.888699
     130Ap     3.962151   131Ap     4.781102   132Ap    12.269528
      91App   12.269575    92App   12.273234   133Ap    12.273728
     134Ap    12.274167    93App   12.274401    94App   12.275800
     135Ap    12.275805   136Ap    12.277523   137Ap    12.292950
      95App   12.293108   138Ap    12.293139   139Ap    12.293203
      96App   12.293226    97App   12.293314   140Ap    12.293415
      98App   12.293456    99App   12.293600   141Ap    12.293613
     100App   12.293681   142Ap    12.293711   101App   12.293852
     143Ap    12.293933   102App   12.293958   144Ap    12.294029
     103App   12.294124   145Ap    12.294149   104App   12.295118
     146Ap    12.295186   147Ap    12.295253   148Ap    12.295486
     149Ap    12.295534   105App   12.295540   106App   12.295556
     107App   12.295631   150Ap    12.295655   108App   12.432259
     151Ap    12.433692   152Ap    12.443709   109App   12.443739
     153Ap    12.454845   110App   12.454850   111App   12.455060
     154Ap    12.455966   112App   12.457143   155Ap    12.457156
     156Ap    12.458345   113App   12.458379   114App   12.459348
     157Ap    12.459494   158Ap    12.463444   115App   12.463482
     159Ap    12.463490   116App   12.465734   160Ap    12.465784
     161Ap    12.474167   117App   12.474171   162Ap    12.503716
     118App   12.503785   163Ap    12.504531   119App   12.515636
     164Ap    12.525147   120App   12.525187   165Ap    12.780818

    Final Occupation by Irrep:
             Ap   App
    DOCC [    35,   22 ]
    SOCC [     1,    0 ]

  @DF-UKS Final Energy: -6563.07871791595153

   => Energetics <=

    Nuclear Repulsion Energy =           1105.0271635941123805
    One-Electron Energy =              -11310.2929142178072652
    Two-Electron Energy =                3796.5648845542186791
    DFT Exchange-Correlation Energy =    -154.3776231864753186
    Empirical Dispersion Energy =          -0.0002286600000000
    VV10 Nonlocal Energy =                  0.0000000000000000
    Total Energy =                      -6563.0787179159524385

  UHF NO Occupations:
  HONO-2 :   34 Ap 1.9995408
  HONO-1 :   35 Ap 1.9973652
  HONO-0 :   36 Ap 1.0000000
  LUNO+0 :   37 Ap 0.0026348
  LUNO+1 :   38 Ap 0.0004592
  LUNO+2 :   23App 0.0001324
  LUNO+3 :   39 Ap 0.0001324

Computation Completed

Properties will be evaluated at   0.000000,   0.000000,   0.000000 [a0]

Properties computed using the SCF density matrix

  Nuclear Dipole Moment: [e a0]
     X:    -0.0000      Y:    -3.1012      Z:    -0.0000

  Electronic Dipole Moment: [e a0]
     X:    -0.0000      Y:     3.1871      Z:     0.0000

  Dipole Moment: [e a0]
     X:    -0.0000      Y:     0.0859      Z:    -0.0000     Total:     0.0859

  Dipole Moment: [D]
     X:    -0.0001      Y:     0.2184      Z:    -0.0000     Total:     0.2184

*** tstop() called on compute404.bc4.acrc.priv at Tue Nov  2 11:10:44 2021
Module time:
	user time   =    1308.02 seconds =      21.80 minutes
	system time =      61.18 seconds =       1.02 minutes
	total time  =         52 seconds =       0.87 minutes
Total time:
	user time   =    1308.02 seconds =      21.80 minutes
	system time =      61.18 seconds =       1.02 minutes
	total time  =         52 seconds =       0.87 minutes

    Psi4 stopped on: Tuesday, 02 November 2021 11:10AM
    Psi4 wall time for execution: 0:00:52.17

*** Psi4 exiting successfully. Buy a developer a beer!
