                               Psi4 1.4.1 release

  ==> Input File <==

--------------------------------------------------------------------------
memory 144 GB

molecule {
2 1
Cu      -0.000001   -0.000007    1.488630
Cu       0.000001   -1.403449   -0.496203
Cu       1.215485    0.701727   -0.496214
Cu      -1.215485    0.701729   -0.496213
 }

set basis Def2-TZVPPD

energy("MN15-D3BJ")
--------------------------------------------------------------------------

    Molecular point group: c1

    Geometry (in Angstrom), charge = 2, multiplicity = 1:

       Center              X                  Y                   Z               Mass
    ------------   -----------------  -----------------  -----------------  -----------------
         CU          -0.000001000000    -0.000007000000     1.488630000000    62.929597720000
         CU           0.000001000000    -1.403449000000    -0.496203000000    62.929597720000
         CU           1.215485000000     0.701727000000    -0.496214000000    62.929597720000
         CU          -1.215485000000     0.701729000000    -0.496213000000    62.929597720000

  Charge       = 2
  Multiplicity = 1
  Basis Set: DEF2-TZVPPD
    Blend: DEF2-TZVPPD
  Basis Set: (DEF2-TZVPPD AUX)
    Blend: DEF2-UNIVERSAL-JKFIT

    Orbital Energies [Eh]
    ---------------------

    Doubly Occupied:

       1A   -321.109731     2A   -321.109730     3A   -321.109728
       4A   -321.109712     5A    -38.277542     6A    -38.277540
       7A    -38.277538     8A    -38.277278     9A    -34.129659
      10A    -34.129657    11A    -34.129654    12A    -34.129635
      13A    -34.127047    14A    -34.127046    15A    -34.127045
      16A    -34.127028    17A    -34.127027    18A    -34.127026
      19A    -34.127024    20A    -34.127024    21A     -4.498572
      22A     -4.497987    23A     -4.497985    24A     -4.497982
      25A     -3.171641    26A     -3.169715    27A     -3.169715
      28A     -3.169715    29A     -3.169101    30A     -3.169100
      31A     -3.167655    32A     -3.167653    33A     -3.167653
      34A     -3.167235    35A     -3.167234    36A     -3.167232
      37A     -0.790209    38A     -0.766050    39A     -0.766048
      40A     -0.766041    41A     -0.757308    42A     -0.757306
      43A     -0.748434    44A     -0.748430    45A     -0.748427
      46A     -0.727276    47A     -0.727275    48A     -0.727268
      49A     -0.725076    50A     -0.725070    51A     -0.723551
      52A     -0.723547    53A     -0.723544    54A     -0.706980
      55A     -0.706977    56A     -0.706975    57A     -0.698159

  @DF-RKS Final Energy: -6562.55712982246951

   => Energetics <=

    Nuclear Repulsion Energy =           1098.4462396717549382
    One-Electron Energy =              -11297.9372486903193931
    Two-Electron Energy =                3791.1481017178980437
    DFT Exchange-Correlation Energy =    -154.2140365818042653
    Empirical Dispersion Energy =          -0.0001859400000000
    VV10 Nonlocal Energy =                  0.0000000000000000
    Total Energy =                      -6562.5571298224704151

  Dipole Moment: [D]
     X:     0.0000      Y:     0.0003      Z:    -0.0001     Total:     0.0003

*** Psi4 exiting successfully. Buy a developer a beer!
