                               Psi4 1.4.1 release

  ==> Input File <==

--------------------------------------------------------------------------
memory 144 GB

molecule {
2 1
Cu       0.543145   -0.896300    1.192832
Cu       0.543145   -0.896300   -1.192832
Cu      -1.492086   -0.543328    0.000000
Cu       0.211399    1.215580   -0.000000
N        0.543145    3.129666   -0.000000
H        0.146420    3.607894   -0.818022
H        0.146420    3.607894    0.818022
H        1.542647    3.366638   -0.000000
 }

set basis Def2-TZVPPD

energy("MN15-D3BJ")
--------------------------------------------------------------------------

    Molecular point group: cs

    Geometry (in Angstrom), charge = 2, multiplicity = 1:

       Center              X                  Y                   Z               Mass
    ------------   -----------------  -----------------  -----------------  -----------------
         CU           0.553481103940    -0.836716104147     1.192832000000    62.929597720000
         CU           0.553481103940    -0.836716104147    -1.192832000000    62.929597720000
         CU          -1.481749896060    -0.483744104147     0.000000000000    62.929597720000
         CU           0.221735103940     1.275163895853     0.000000000000    62.929597720000
         N            0.553481103940     3.189249895853     0.000000000000    14.003074004430
         H            0.156756103940     3.667477895853    -0.818022000000     1.007825032230
         H            0.156756103940     3.667477895853     0.818022000000     1.007825032230
         H            1.552983103940     3.426221895853     0.000000000000     1.007825032230

  Charge       = 2
  Multiplicity = 1
  Basis Set: DEF2-TZVPPD
    Blend: DEF2-TZVPPD
  Basis Set: (DEF2-TZVPPD AUX)
    Blend: DEF2-UNIVERSAL-JKFIT

    Orbital Energies [Eh]
    ---------------------

    Doubly Occupied:

       1Ap  -321.075641     1App -321.075641     2Ap  -321.075629
       3Ap  -321.064037     2App  -38.244107     4Ap   -38.244107
       5Ap   -38.243939     6Ap   -38.240770     3App  -34.096072
       7Ap   -34.096071     8Ap   -34.096056     4App  -34.093686
       5App  -34.093668     9Ap   -34.093667    10Ap   -34.093417
       6App  -34.093217    11Ap   -34.093216    12Ap   -34.093206
       7App  -34.087197    13Ap   -34.087195    14Ap   -14.442671
      15Ap    -4.464742    16Ap    -4.464159     8App   -4.464158
      17Ap    -4.457424    18Ap    -3.137462     9App   -3.135920
      19Ap    -3.135913    20Ap    -3.134667    10App   -3.134270
      21Ap    -3.134267    11App   -3.133848    12App   -3.133118
      22Ap    -3.133118    13App   -3.126590    23Ap    -3.126585
      24Ap    -3.125449    25Ap    -1.248574    26Ap    -0.849362
      14App   -0.849343    27Ap    -0.776863    28Ap    -0.741733
      15App   -0.729331    29Ap    -0.729330    30Ap    -0.728349
      16App   -0.720982    31Ap    -0.720963    32Ap    -0.715552
      17App   -0.710604    33Ap    -0.710585    18App   -0.692369
      19App   -0.691011    34Ap    -0.690999    35Ap    -0.688516
      20App   -0.688514    21App   -0.686442    36Ap    -0.686427
      22App   -0.671407    37Ap    -0.666886    23App   -0.666870
      38Ap    -0.666389    39Ap    -0.648260

  @DF-RKS Final Energy: -6619.17085931199654

   => Energetics <=

    Nuclear Repulsion Energy =           1296.6693314971132622
    One-Electron Energy =              -11770.8332775726939872
    Two-Electron Energy =                4013.7989861881087563
    DFT Exchange-Correlation Energy =    -158.8054987945242260
    Empirical Dispersion Energy =          -0.0004006300000000
    VV10 Nonlocal Energy =                  0.0000000000000000
    Total Energy =                      -6619.1708593119965371

  Dipole Moment: [D]
     X:     0.6336      Y:     3.6588      Z:     0.0000     Total:     3.7133

*** Psi4 exiting successfully. Buy a developer a beer!
