                               Psi4 1.4.1 release

  ==> Input File <==

--------------------------------------------------------------------------
memory 120 GB

molecule {
2 1
Cu       0.253817    1.375381    0.000000
Cu       0.253817   -0.687598    1.191098
Cu       0.253817   -0.687598   -1.191098
Cu      -1.745352    0.000159    0.000000
N        2.725949   -0.000959   -0.000000
H        3.150217   -0.936878   -0.000000
H        3.150637    0.466806   -0.810419
H        3.150637    0.466806    0.810419
 }

set basis Def2-TZVPPD

energy("SCF", write_orbitals="mos")
energy("MN15-D3BJ", restart_file="mos")
--------------------------------------------------------------------------

    Molecular point group: cs
  Charge       = 2
  Multiplicity = 1
  Basis Set: DEF2-TZVPPD
    Blend: DEF2-TZVPPD
  Basis Set: (DEF2-TZVPPD AUX)
    Blend: DEF2-UNIVERSAL-JKFIT
  @DF-RHF Final Energy: -6611.44843386959838
    Total Energy =                      -6611.4484338695983752
    Molecular point group: cs

    Geometry (in Angstrom), charge = 2, multiplicity = 1:

       Center              X                  Y                   Z               Mass
    ------------   -----------------  -----------------  -----------------  -----------------
         CU           0.306727314614     1.375362665601     0.000000000000    62.929597720000
         CU           0.306727314614    -0.687616334399     1.191098000000    62.929597720000
         CU           0.306727314614    -0.687616334399    -1.191098000000    62.929597720000
         CU          -1.692441685386     0.000140665601     0.000000000000    62.929597720000
         N            2.778859314614    -0.000977334399     0.000000000000    14.003074004430
         H            3.203127314614    -0.936896334399     0.000000000000     1.007825032230
         H            3.203547314614     0.466787665601    -0.810419000000     1.007825032230
         H            3.203547314614     0.466787665601     0.810419000000     1.007825032230

  Charge       = 2
  Multiplicity = 1
  Basis Set: DEF2-TZVPPD
    Blend: DEF2-TZVPPD
  Basis Set: (DEF2-TZVPPD AUX)
    Blend: DEF2-UNIVERSAL-JKFIT

    Orbital Energies [Eh]
    ---------------------

    Doubly Occupied:

       1Ap  -321.076598     1App -321.076595     2Ap  -321.076586
       3Ap  -321.068629     4Ap   -38.244672     2App  -38.244667
       5Ap   -38.244529     6Ap   -38.237541     7Ap   -34.096397
       3App  -34.096391     8Ap   -34.096381     4App  -34.094862
       5App  -34.094844     9Ap   -34.094841    10Ap   -34.093527
       6App  -34.093521    11Ap   -34.093515    12Ap   -34.089444
      13Ap   -34.086896     7App  -34.086896    14Ap   -14.433454
      15Ap    -4.465846    16Ap    -4.465238     8App   -4.465234
      17Ap    -4.457414    18Ap    -3.138921     9App   -3.138072
      19Ap    -3.138070    10App   -3.136129    20Ap    -3.135025
      11App   -3.135023    21Ap    -3.134856    22Ap    -3.133942
      12App   -3.133937    23Ap    -3.128034    13App   -3.127016
      24Ap    -3.127016    25Ap    -1.238158    14App   -0.838423
      26Ap    -0.838418    27Ap    -0.759888    28Ap    -0.746102
      29Ap    -0.732730    15App   -0.732729    16App   -0.723862
      30Ap    -0.723860    31Ap    -0.722197    17App   -0.712000
      32Ap    -0.711998    33Ap    -0.707928    18App   -0.693400
      19App   -0.693048    34Ap    -0.693044    35Ap    -0.690567
      20App   -0.690558    21App   -0.687738    36Ap    -0.687735
      37Ap    -0.681751    22App   -0.673174    38Ap    -0.670723
      23App   -0.670720    39Ap    -0.629881

  @DF-RKS Final Energy: -6619.12458534545840

   => Energetics <=

    Nuclear Repulsion Energy =           1311.3739657161461309
    One-Electron Energy =              -11800.1556427100149449
    Two-Electron Energy =                4028.4656036244300594
    DFT Exchange-Correlation Energy =    -158.8081054160195720
    Empirical Dispersion Energy =          -0.0004065600000000
    VV10 Nonlocal Energy =                  0.0000000000000000
    Total Energy =                      -6619.1245853454574899

  Dipole Moment: [D]
     X:     3.9785      Y:    -0.0012      Z:    -0.0000     Total:     3.9785

*** Psi4 exiting successfully. Buy a developer a beer!
