                               Psi4 1.4.1 release

  ==> Input File <==

--------------------------------------------------------------------------
memory 144 GB

molecule {
2 2
Cu      -0.967673    0.056725    1.180703
Cu      -0.972439   -0.054931   -1.177653
Cu       0.936359    1.185605   -0.057167
Cu       0.933653   -1.187345    0.053806
H        2.032882   -0.001578    0.009000
 }

set reference uks
set basis Def2-TZVPPD

energy("MN15-D3BJ")
--------------------------------------------------------------------------

    Molecular point group: c1

    Geometry (in Angstrom), charge = 2, multiplicity = 2:

       Center              X                  Y                   Z               Mass
    ------------   -----------------  -----------------  -----------------  -----------------
         CU          -0.958324640850     0.056717846605     1.180744549625    62.929597720000
         CU          -0.963090640850    -0.054938153395    -1.177611450375    62.929597720000
         CU           0.945707359150     1.185597846605    -0.057125450375    62.929597720000
         CU           0.943001359150    -1.187352153395     0.053847549625    62.929597720000
         H            2.042230359150    -0.001585153395     0.009041549625     1.007825032230

  Charge       = 2
  Multiplicity = 2
  Basis Set: DEF2-TZVPPD
    Blend: DEF2-TZVPPD
  Basis Set: (DEF2-TZVPPD AUX)
    Blend: DEF2-UNIVERSAL-JKFIT

    Orbital Energies [Eh]
    ---------------------

    Alpha Occupied:

       1A   -321.131938     2A   -321.131928     3A   -321.112654
       4A   -321.112616     5A    -38.304398     6A    -38.304290
       7A    -38.279916     8A    -38.279802     9A    -34.157803
      10A    -34.157785    11A    -34.154041    12A    -34.154029
      13A    -34.150600    14A    -34.150588    15A    -34.132064
      16A    -34.132023    17A    -34.129459    18A    -34.129427
      19A    -34.129303    20A    -34.129274    21A     -4.522980
      22A     -4.522573    23A     -4.501323    24A     -4.500891
      25A     -3.198081    26A     -3.196213    27A     -3.194359
      28A     -3.192659    29A     -3.190154    30A     -3.189871
      31A     -3.173157    32A     -3.171838    33A     -3.171737
      34A     -3.170918    35A     -3.170673    36A     -3.169504
      37A     -0.846904    38A     -0.803064    39A     -0.781655
      40A     -0.781167    41A     -0.775232    42A     -0.767232
      43A     -0.766764    44A     -0.764623    45A     -0.758391
      46A     -0.749874    47A     -0.749079    48A     -0.746373
      49A     -0.744025    50A     -0.741411    51A     -0.734418
      52A     -0.728614    53A     -0.728454    54A     -0.726573
      55A     -0.725201    56A     -0.720105    57A     -0.714408
      58A     -0.636587

    Alpha Virtual:

      59A     -0.445939    60A     -0.438291    61A     -0.381115
      62A     -0.318027    63A     -0.316862    64A     -0.307493
      65A     -0.297644    66A     -0.289519    67A     -0.175816
      68A     -0.167475    69A     -0.165893    70A     -0.158988
      71A     -0.153711    72A     -0.153147    73A     -0.151016
      74A     -0.127692    75A     -0.113095    76A     -0.106802
      77A     -0.101456    78A     -0.100288    79A     -0.099931
      80A     -0.099113    81A     -0.096408    82A     -0.089406
      83A     -0.050234    84A     -0.045977    85A     -0.044345
      86A     -0.040033    87A     -0.035482    88A     -0.026769
      89A     -0.001060    90A      0.001748    91A      0.004268
      92A      0.015855    93A      0.018969    94A      0.026641
      95A      0.029797    96A      0.034416    97A      0.053779
      98A      0.060102    99A      0.093938   100A      0.094972
     101A      0.099905   102A      0.105938   103A      0.114168
     104A      0.120181   105A      0.150874   106A      0.153540
     107A      0.155916   108A      0.163517   109A      0.169617
     110A      0.172464   111A      0.187619   112A      0.216481
     113A      0.251011   114A      0.383313   115A      0.389644
     116A      0.391756   117A      0.411404   118A      0.419558
     119A      0.433014   120A      0.445911   121A      0.474569
     122A      0.503201   123A      0.513439   124A      0.514966
     125A      0.524375   126A      0.545246   127A      0.554414
     128A      0.562969   129A      0.579819   130A      0.586730
     131A      0.620846   132A      0.634414   133A      0.662221
     134A      0.669387   135A      0.670614   136A      0.691179
     137A      0.695118   138A      0.715473   139A      0.717605
     140A      0.820338   141A      0.839439   142A      0.851919
     143A      0.864173   144A      0.868756   145A      0.912097
     146A      0.912276   147A      0.997412   148A      1.050765
     149A      2.143533   150A      2.367040   151A      2.468671
     152A      2.544270   153A      2.552226   154A      2.565423
     155A      2.604002   156A      2.618774   157A      2.620577
     158A      2.621836   159A      2.672264   160A      2.732954
     161A      2.740636   162A      2.774765   163A      2.802510
     164A      2.844901   165A      2.859227   166A      2.868311
     167A      2.882488   168A      2.961046   169A      2.970259
     170A      2.977311   171A      2.978674   172A      2.984417
     173A      2.991686   174A      2.991760   175A      2.992791
     176A      2.997612   177A      2.997959   178A      2.999907
     179A      3.000331   180A      3.001177   181A      3.003406
     182A      3.005053   183A      3.009874   184A      3.015533
     185A      3.033145   186A      3.035345   187A      3.036278
     188A      3.064594   189A      3.073356   190A      3.094621
     191A      3.141710   192A      3.150099   193A      3.151471
     194A      3.185108   195A      3.226018   196A      3.236018
     197A      3.243894   198A      3.254038   199A      3.288568
     200A      3.306244   201A      3.307798   202A      3.316136
     203A      3.343718   204A      3.364672   205A      3.391920
     206A      3.406465   207A      3.409229   208A      3.422134
     209A      3.465783   210A      3.479184   211A      3.499034
     212A      3.503156   213A      3.526720   214A      3.586312
     215A      3.603249   216A      3.683633   217A      3.856141
     218A      3.856696   219A      3.923093   220A      4.235951
     221A      4.417527   222A     12.269356   223A     12.271551
     224A     12.271676   225A     12.272580   226A     12.272687
     227A     12.272924   228A     12.274441   229A     12.274511
     230A     12.275431   231A     12.275591   232A     12.275612
     233A     12.276083   234A     12.276176   235A     12.276842
     236A     12.277240   237A     12.277456   238A     12.277459
     239A     12.279711   240A     12.292230   241A     12.292268
     242A     12.292352   243A     12.292467   244A     12.292570
     245A     12.292615   246A     12.292692   247A     12.292802
     248A     12.292872   249A     12.292931   250A     12.292960
     251A     12.293244   252A     12.293522   253A     12.293730
     254A     12.294493   255A     12.294524   256A     12.294572
     257A     12.294572   258A     12.434977   259A     12.436106
     260A     12.440590   261A     12.441437   262A     12.441615
     263A     12.444310   264A     12.445481   265A     12.453991
     266A     12.454409   267A     12.454675   268A     12.455064
     269A     12.455389   270A     12.455799   271A     12.458238
     272A     12.458260   273A     12.460542   274A     12.461293
     275A     12.466253   276A     12.473448   277A     12.475140
     278A     12.482342   279A     12.492646   280A     12.494307
     281A     12.498152   282A     12.514914   283A     12.536797
     284A     12.675312   285A     12.686591

    Beta Occupied:

       1A   -321.132012     2A   -321.132003     3A   -321.112416
       4A   -321.112375     5A    -38.303318     6A    -38.303209
       7A    -38.279938     8A    -38.279826     9A    -34.155561
      10A    -34.155537    11A    -34.152719    12A    -34.152706
      13A    -34.149586    14A    -34.149575    15A    -34.132230
      16A    -34.132209    17A    -34.129831    18A    -34.129804
      19A    -34.129550    20A    -34.129516    21A     -4.521597
      22A     -4.521199    23A     -4.500720    24A     -4.500278
      25A     -3.193835    26A     -3.192081    27A     -3.190876
      28A     -3.189316    29A     -3.188033    30A     -3.187765
      31A     -3.174136    32A     -3.171295    33A     -3.171062
      34A     -3.170724    35A     -3.170707    36A     -3.170498
      37A     -0.818223    38A     -0.796073    39A     -0.779513
      40A     -0.774112    41A     -0.771047    42A     -0.765149
      43A     -0.763588    44A     -0.761887    45A     -0.752714
      46A     -0.745258    47A     -0.743580    48A     -0.742536
      49A     -0.738044    50A     -0.733213    51A     -0.733086
      52A     -0.728608    53A     -0.725224    54A     -0.720972
      55A     -0.715996    56A     -0.713437    57A     -0.712885

    Beta Virtual:

      58A     -0.507152    59A     -0.434821    60A     -0.433280
      61A     -0.354712    62A     -0.309640    63A     -0.303003
      64A     -0.300715    65A     -0.291188    66A     -0.285230
      67A     -0.165310    68A     -0.160717    69A     -0.160624
      70A     -0.152384    71A     -0.150544    72A     -0.147017
      73A     -0.140267    74A     -0.126101    75A     -0.104807
      76A     -0.101953    77A     -0.101344    78A     -0.100698
      79A     -0.100203    80A     -0.099467    81A     -0.089228
      82A     -0.081600    83A     -0.045124    84A     -0.043867
      85A     -0.042781    86A     -0.040693    87A     -0.033737
      88A     -0.025175    89A      0.008321    90A      0.011570
      91A      0.011750    92A      0.017581    93A      0.030007
      94A      0.033773    95A      0.036360    96A      0.042248
      97A      0.056510    98A      0.069974    99A      0.098730
     100A      0.100344   101A      0.101809   102A      0.106785
     103A      0.118775   104A      0.127102   105A      0.154441
     106A      0.158321   107A      0.159103   108A      0.171443
     109A      0.172497   110A      0.175066   111A      0.190743
     112A      0.226816   113A      0.264578   114A      0.388237
     115A      0.392973   116A      0.400304   117A      0.414150
     118A      0.426621   119A      0.439843   120A      0.448993
     121A      0.481665   122A      0.505602   123A      0.513875
     124A      0.522742   125A      0.526810   126A      0.547159
     127A      0.554994   128A      0.571001   129A      0.588830
     130A      0.591330   131A      0.624920   132A      0.637569
     133A      0.664268   134A      0.670435   135A      0.671618
     136A      0.697328   137A      0.700058   138A      0.718001
     139A      0.725086   140A      0.839646   141A      0.855061
     142A      0.857476   143A      0.865774   144A      0.871518
     145A      0.918157   146A      0.918383   147A      1.014113
     148A      1.074796   149A      2.162380   150A      2.388769
     151A      2.494851   152A      2.560020   153A      2.597931
     154A      2.599518   155A      2.624258   156A      2.627965
     157A      2.634277   158A      2.640561   159A      2.680956
     160A      2.737177   161A      2.743672   162A      2.796651
     163A      2.805408   164A      2.850117   165A      2.867253
     166A      2.873137   167A      2.886777   168A      2.963236
     169A      2.971065   170A      2.979291   171A      2.983673
     172A      2.985216   173A      2.992728   174A      2.993944
     175A      2.993990   176A      3.001445   177A      3.002034
     178A      3.003096   179A      3.003179   180A      3.005050
     181A      3.005807   182A      3.008687   183A      3.012435
     184A      3.020699   185A      3.036083   186A      3.037488
     187A      3.037747   188A      3.065913   189A      3.075403
     190A      3.100202   191A      3.144009   192A      3.153551
     193A      3.155626   194A      3.184906   195A      3.228133
     196A      3.241459   197A      3.249221   198A      3.262656
     199A      3.293854   200A      3.309128   201A      3.313673
     202A      3.322157   203A      3.375706   204A      3.376207
     205A      3.400133   206A      3.407916   207A      3.414986
     208A      3.433160   209A      3.474506   210A      3.496527
     211A      3.504393   212A      3.515041   213A      3.535554
     214A      3.613904   215A      3.668557   216A      3.740333
     217A      3.866068   218A      3.869744   219A      3.925682
     220A      4.287686   221A      4.497690   222A     12.273715
     223A     12.273999   224A     12.274546   225A     12.274832
     226A     12.275062   227A     12.275114   228A     12.275555
     229A     12.275693   230A     12.276208   231A     12.276519
     232A     12.276761   233A     12.276824   234A     12.277198
     235A     12.277355   236A     12.278746   237A     12.279133
     238A     12.280978   239A     12.284019   240A     12.291503
     241A     12.291577   242A     12.291697   243A     12.291714
     244A     12.291764   245A     12.291967   246A     12.292072
     247A     12.292256   248A     12.292625   249A     12.292637
     250A     12.292736   251A     12.292915   252A     12.292990
     253A     12.293287   254A     12.293968   255A     12.293974
     256A     12.294014   257A     12.294028   258A     12.435608
     259A     12.438763   260A     12.439706   261A     12.444129
     262A     12.444962   263A     12.445990   264A     12.448945
     265A     12.454042   266A     12.454289   267A     12.455123
     268A     12.455220   269A     12.455513   270A     12.456303
     271A     12.458648   272A     12.460663   273A     12.460913
     274A     12.461200   275A     12.465994   276A     12.473724
     277A     12.476942   278A     12.482293   279A     12.495380
     280A     12.495663   281A     12.503095   282A     12.518809
     283A     12.536680   284A     12.679637   285A     12.691292

    Final Occupation by Irrep:
              A
    DOCC [    57 ]
    SOCC [     1 ]

  @DF-UKS Final Energy: -6563.10621971127966

   => Energetics <=

    Nuclear Repulsion Energy =           1106.1480243785747462
    One-Electron Energy =              -11312.0464411812608887
    Two-Electron Energy =                3797.1930081284513108
    DFT Exchange-Correlation Energy =    -154.4005821770446119
    Empirical Dispersion Energy =          -0.0002288600000000
    VV10 Nonlocal Energy =                  0.0000000000000000
    Total Energy =                      -6563.1062197112778449

  UHF NO Occupations:
  HONO-2 :   56  A 1.9986894
  HONO-1 :   57  A 1.9966948
  HONO-0 :   58  A 1.0000000
  LUNO+0 :   59  A 0.0033052
  LUNO+1 :   60  A 0.0013106
  LUNO+2 :   61  A 0.0006102
  LUNO+3 :   62  A 0.0002618

Computation Completed

Properties will be evaluated at   0.000000,   0.000000,   0.000000 [a0]

Properties computed using the SCF density matrix

  Nuclear Dipole Moment: [e a0]
     X:     2.0669      Y:    -0.0016      Z:     0.0092

  Electronic Dipole Moment: [e a0]
     X:    -2.3374      Y:     0.0022      Z:    -0.0107

  Dipole Moment: [e a0]
     X:    -0.2705      Y:     0.0006      Z:    -0.0016     Total:     0.2705

  Dipole Moment: [D]
     X:    -0.6876      Y:     0.0015      Z:    -0.0040     Total:     0.6876

*** tstop() called on compute415.bc4.acrc.priv at Tue Nov  2 11:10:27 2021
Module time:
	user time   =    1197.72 seconds =      19.96 minutes
	system time =      55.38 seconds =       0.92 minutes
	total time  =         48 seconds =       0.80 minutes
Total time:
	user time   =    1197.72 seconds =      19.96 minutes
	system time =      55.38 seconds =       0.92 minutes
	total time  =         48 seconds =       0.80 minutes

    Psi4 stopped on: Tuesday, 02 November 2021 11:10AM
    Psi4 wall time for execution: 0:00:47.40

*** Psi4 exiting successfully. Buy a developer a beer!
