                               Psi4 1.4.1 release

  ==> Input File <==

--------------------------------------------------------------------------
memory 144 GB

molecule {
0 2
F        0.000000    0.000000    0.000000
 }

set reference uks
set basis Def2-TZVPPD

energy("MN15-D3BJ")
--------------------------------------------------------------------------

    Molecular point group: d2h
    Geometry (in Angstrom), charge = 0, multiplicity = 2:

       Center              X                  Y                   Z               Mass
    ------------   -----------------  -----------------  -----------------  -----------------
         F            0.000000000000     0.000000000000     0.000000000000    18.998403162730

  Charge       = 0
  Multiplicity = 2
  Basis Set: DEF2-TZVPPD
    Blend: DEF2-TZVPPD
  Basis Set: (DEF2-TZVPPD AUX)
    Blend: DEF2-UNIVERSAL-JKFIT

    Orbital Energies [Eh]
    ---------------------

    Alpha Occupied:

       1Ag   -24.384227     2Ag    -1.254577     1B1u   -0.601973
       1B2u   -0.537064     1B3u   -0.537064

    Alpha Virtual:

       3Ag     0.138811     2B1u    0.145972     2B3u    0.153575
       2B2u    0.153575     4Ag     0.515531     1B2g    0.519888
       1B3g    0.519888     1B1g    0.531463     5Ag     0.531463
       3B1u    0.693296     3B2u    0.720980     3B3u    0.720980
       6Ag     0.892885     7Ag     2.153731     2B2g    2.173396
       2B3g    2.173396     8Ag     2.224373     2B1g    2.224373
       4B1u    3.093700     4B2u    3.195644     4B3u    3.195644
       9Ag     3.780317     5B1u    6.602957     5B2u    6.621443
       5B3u    6.621443     6B1u    6.668018     1Au     6.668018
       6B2u    6.742820     6B3u    6.742820    10Ag     8.069881
       3B3g    8.112636     3B2g    8.112636     3B1g    8.218637
      11Ag     8.218637    12Ag    54.295415

    Beta Occupied:

       1Ag   -24.365930     2Ag    -1.180156     1B3u   -0.501128
       1B2u   -0.501128

    Beta Virtual:

       1B1u   -0.212280     3Ag     0.149117     2B2u    0.154686
       2B3u    0.154686     2B1u    0.161839     1B1g    0.528346
       4Ag     0.528346     1B3g    0.539962     1B2g    0.539962
       5Ag     0.558345     3B2u    0.729126     3B3u    0.729126
       3B1u    0.768762     6Ag     0.912490     7Ag     2.233817
       2B1g    2.233817     2B3g    2.240495     2B2g    2.240495
       8Ag     2.256984     4B3u    3.203035     4B2u    3.203035
       4B1u    3.262557     9Ag     3.828196     5B1u    6.714408
       1Au     6.714408     5B2u    6.724195     5B3u    6.724195
       6B2u    6.739004     6B3u    6.739004     6B1u    6.754379
       3B2g    8.194436     3B3g    8.194436    10Ag     8.201853
       3B1g    8.201853    11Ag     8.266034    12Ag    54.362787

    Final Occupation by Irrep:
             Ag   B1g   B2g   B3g    Au   B1u   B2u   B3u
    DOCC [     2,    0,    0,    0,    0,    0,    1,    1 ]
    SOCC [     0,    0,    0,    0,    0,    1,    0,    0 ]

  @DF-UKS Final Energy:   -99.68695405577432

   => Energetics <=

    Nuclear Repulsion Energy =              0.0000000000000000
    One-Electron Energy =                -139.1918904991918566
    Two-Electron Energy =                  45.3900036961931619
    DFT Exchange-Correlation Energy =      -5.8850672527756185
    Empirical Dispersion Energy =           0.0000000000000000
    VV10 Nonlocal Energy =                  0.0000000000000000
    Total Energy =                        -99.6869540557743079

  UHF NO Occupations:
  HONO-2 :    1B2u 1.9998577
  HONO-1 :    2 Ag 1.9997880
  HONO-0 :    1B1u 1.0000000
  LUNO+0 :    3 Ag 0.0002120
  LUNO+1 :    2B2u 0.0001423
  LUNO+2 :    2B3u 0.0001423
  LUNO+3 :    4 Ag 0.0000003

Computation Completed

Properties will be evaluated at   0.000000,   0.000000,   0.000000 [a0]

Properties computed using the SCF density matrix

  Nuclear Dipole Moment: [e a0]
     X:     0.0000      Y:     0.0000      Z:     0.0000

  Electronic Dipole Moment: [e a0]
     X:     0.0000      Y:     0.0000      Z:     0.0000

  Dipole Moment: [e a0]
     X:     0.0000      Y:     0.0000      Z:     0.0000     Total:     0.0000

  Dipole Moment: [D]
     X:     0.0000      Y:     0.0000      Z:     0.0000     Total:     0.0000

*** tstop() called on compute405.bc4.acrc.priv at Tue Nov  2 11:08:41 2021
Module time:
	user time   =      51.03 seconds =       0.85 minutes
	system time =       1.94 seconds =       0.03 minutes
	total time  =          3 seconds =       0.05 minutes
Total time:
	user time   =      51.03 seconds =       0.85 minutes
	system time =       1.94 seconds =       0.03 minutes
	total time  =          3 seconds =       0.05 minutes

    Psi4 stopped on: Tuesday, 02 November 2021 11:08AM
    Psi4 wall time for execution: 0:00:03.47

*** Psi4 exiting successfully. Buy a developer a beer!
