                               Psi4 1.4.1 release

  ==> Input File <==

--------------------------------------------------------------------------
memory 144 GB

molecule {
0 2
H        0.000000    0.000000    0.000000
 }

set reference uks
set basis Def2-TZVPPD

energy("MN15-D3BJ")
--------------------------------------------------------------------------

    Molecular point group: d2h
    Geometry (in Angstrom), charge = 0, multiplicity = 2:

       Center              X                  Y                   Z               Mass
    ------------   -----------------  -----------------  -----------------  -----------------
         H            0.000000000000     0.000000000000     0.000000000000     1.007825032230

  Charge       = 0
  Multiplicity = 2
  Basis Set: DEF2-TZVPPD
    Blend: DEF2-TZVPPD
  Basis Set: (DEF2-TZVPPD AUX)
    Blend: DEF2-UNIVERSAL-JKFIT

    Orbital Energies [Eh]
    ---------------------

    Alpha Occupied:

       1Ag    -0.347623

    Alpha Virtual:

       1B3u    0.151435     1B2u    0.151435     1B1u    0.151435
       2Ag     0.278048     2B3u    0.862736     2B1u    0.862736
       2B2u    0.862736     3Ag     2.049947     4Ag     3.022753
       1B2g    3.022753     5Ag     3.022753     1B1g    3.022753
       1B3g    3.022753     3B3u    3.550826     3B1u    3.550826
       3B2u    3.550826

    Beta Occupied:

    Beta Virtual:

       1B2u   26.097018     1B1u   26.097021     1B3u   26.097101
       1Ag    62.675588     2B2u  520.454342     2B1u  520.456890
       2B3u  520.461972     2Ag   682.984184     3Ag   915.539024
       1B2g  915.562569     1B3g  915.564747     4Ag   915.573708
       1B1g  915.581162     5Ag   937.954171     3B2u  969.586844
       3B1u  969.595559     3B3u  969.613690

    Final Occupation by Irrep:
             Ag   B1g   B2g   B3g    Au   B1u   B2u   B3u
    DOCC [     0,    0,    0,    0,    0,    0,    0,    0 ]
    SOCC [     1,    0,    0,    0,    0,    0,    0,    0 ]

  @DF-UKS Final Energy:    -0.49850671258518

   => Energetics <=

    Nuclear Repulsion Energy =              0.0000000000000000
    One-Electron Energy =                  -0.4978659699336755
    Two-Electron Energy =                   0.1732410096843687
    DFT Exchange-Correlation Energy =      -0.1738817523358686
    Empirical Dispersion Energy =           0.0000000000000000
    VV10 Nonlocal Energy =                  0.0000000000000000
    Total Energy =                         -0.4985067125851753

  UHF NO Occupations:
  HONO-0 :    1 Ag 1.0000000
  LUNO+0 :    2 Ag 0.0000000
  LUNO+1 :    3 Ag 0.0000000
  LUNO+2 :    3B3u 0.0000000
  LUNO+3 :    2B3u 0.0000000

Computation Completed

Properties will be evaluated at   0.000000,   0.000000,   0.000000 [a0]

Properties computed using the SCF density matrix

  Nuclear Dipole Moment: [e a0]
     X:     0.0000      Y:     0.0000      Z:     0.0000

  Electronic Dipole Moment: [e a0]
     X:     0.0000      Y:     0.0000      Z:     0.0000

  Dipole Moment: [e a0]
     X:     0.0000      Y:     0.0000      Z:     0.0000     Total:     0.0000

  Dipole Moment: [D]
     X:     0.0000      Y:     0.0000      Z:     0.0000     Total:     0.0000

*** tstop() called on compute495.bc4.acrc.priv at Tue Nov  2 11:08:59 2021
Module time:
	user time   =      22.18 seconds =       0.37 minutes
	system time =       0.86 seconds =       0.01 minutes
	total time  =          2 seconds =       0.03 minutes
Total time:
	user time   =      22.18 seconds =       0.37 minutes
	system time =       0.86 seconds =       0.01 minutes
	total time  =          2 seconds =       0.03 minutes

    Psi4 stopped on: Tuesday, 02 November 2021 11:08AM
    Psi4 wall time for execution: 0:00:02.51

*** Psi4 exiting successfully. Buy a developer a beer!
