                         Program Version 4.2.0 -  RELEASE  -
|  1> #
|  2> # Ag01N0_H ri-DSD-BLYP/2013-D3BJ/Def2-TZVPPD
|  3> #
|  4> ! rijk ri-dsd-blyp/2013 d3bj def2-tzvppd def2/jk def2-tzvppd/c grid4 nofinalgrid opt xyzfile numfreq
|  5>
|  6> *xyz 0 1
|  7> Ag       0.000000    0.000000    0.033547
|  8> H        0.000000    0.000000   -1.576706
|  9> *
| 10>
| 11> %maxcore 5000
| 12>
| 13> %pal
| 14> nprocs = 24
| 15> end
| 16>
| 17>
| 18>                          ****END OF INPUT****
 Total Charge           Charge          ....    0
 Multiplicity           Mult            ....    1
 Number of Electrons    NEL             ....   20
Dispersion correction            ... done
MP2 TOTAL ENERGY:     -147.430900656 Eh
Dispersion correction           -0.000634130
FINAL SINGLE POINT ENERGY      -147.431534785690
Dispersion correction            ... done
MP2 TOTAL ENERGY:     -147.430909209 Eh
Dispersion correction           -0.000634229
FINAL SINGLE POINT ENERGY      -147.431543438856
Dispersion correction            ... done
MP2 TOTAL ENERGY:     -147.430921803 Eh
Dispersion correction           -0.000634574
FINAL SINGLE POINT ENERGY      -147.431556377294
                    ***********************HURRAY********************

CARTESIAN COORDINATES (ANGSTROEM)
---------------------------------
  Ag     0.000000    0.000000    0.028645
  H      0.000000    0.000000   -1.571804

 Multiplicity           Mult            ....    1
 Number of Electrons    NEL             ....   20
 Basis Dimension        Dim             ....   73

ORBITAL ENERGIES
----------------

  NO   OCC          E(Eh)            E(eV)
   0   2.0000      -4.133943      -112.4903
   1   2.0000      -2.639764       -71.8316
   2   2.0000      -2.633949       -71.6734
   3   2.0000      -2.633949       -71.6734
   4   2.0000      -0.495900       -13.4941
   5   2.0000      -0.461718       -12.5640
   6   2.0000      -0.461718       -12.5640
   7   2.0000      -0.456025       -12.4091
   8   2.0000      -0.456025       -12.4091
   9   2.0000      -0.300703        -8.1825
  10   0.0000      -0.022472        -0.6115
  11   0.0000       0.038094         1.0366
  12   0.0000       0.038094         1.0366
  13   0.0000       0.111538         3.0351
  14   0.0000       0.155158         4.2221

Dispersion correction            ... done

MULLIKEN ATOMIC CHARGES
-----------------------
   0 Ag:    0.034216
   1 H :   -0.034216
Sum of atomic charges:   -0.0000000

LOEWDIN ATOMIC CHARGES
----------------------
   0 Ag:    0.314095
   1 H :   -0.314095

  Mayer bond orders larger than 0.100000
B(  0-Ag,  1-H ) :   1.0326

MP2 TOTAL ENERGY:     -147.430921891 Eh
Dispersion correction           -0.000634567
FINAL SINGLE POINT ENERGY      -147.431556458111

DIPOLE MOMENT
-------------
                                X             Y             Z
Electronic contribution:      0.00000       0.00000       3.63393
Nuclear contribution   :      0.00000       0.00000      -2.46441
                        -----------------------------------------
Total Dipole Moment    :      0.00000       0.00000       1.16953
                        -----------------------------------------
Magnitude (a.u.)       :      1.16953
Magnitude (Debye)      :      2.97270

VIBRATIONAL FREQUENCIES
-----------------------

Scaling factor for frequencies =  1.000000000 (already applied!)

   0:         0.00 cm**-1
   1:         0.00 cm**-1
   2:         0.00 cm**-1
   3:         0.00 cm**-1
   4:         0.00 cm**-1
   5:      1831.83 cm**-1

IR SPECTRUM
-----------

 Mode    freq (cm**-1)   T**2         TX         TY         TZ
-------------------------------------------------------------------
   5:      1831.83   99.707800  (  0.000042  -0.000016   9.985379)

--------------------------
THERMOCHEMISTRY AT 298.15K
--------------------------

Temperature         ... 298.15 K
Pressure            ... 1.00 atm
Total Mass          ... 108.88 AMU
The molecule is recognized as being linear

Throughout the following assumptions are being made:
  (1) The electronic state is orbitally nondegenerate
  (2) There are no thermally accessible electronically excited states
  (3) Hindered rotations indicated by low frequency modes are not
      treated as such but are treated as vibrations and this may
      cause some error
  (4) All equations used are the standard statistical mechanics
      equations for an ideal gas
  (5) All vibrations are strictly harmonic

freq.    1831.83  E(vib)   ...       0.00

------------
INNER ENERGY
------------

The inner energy is: U= E(el) + E(ZPE) + E(vib) + E(rot) + E(trans)
    E(el)   - is the total energy from the electronic structure calculation
              = E(kin-el) + E(nuc-el) + E(el-el) + E(nuc-nuc)
    E(ZPE)  - the the zero temperature vibrational energy from the frequency calculation
    E(vib)  - the the finite temperature correction to E(ZPE) due to population
              of excited vibrational states
    E(rot)  - is the rotational thermal energy
    E(trans)- is the translational thermal energy

Summary of contributions to the inner energy U:
Electronic energy                ...   -147.43155629 Eh
Zero point energy                ...      0.00417321 Eh       2.62 kcal/mol
Thermal vibrational correction   ...      0.00000121 Eh       0.00 kcal/mol
Thermal rotational correction    ...      0.00094418 Eh       0.59 kcal/mol
Thermal translational correction ...      0.00141627 Eh       0.89 kcal/mol
-----------------------------------------------------------------------
Total thermal energy                   -147.42502142 Eh

Summary of corrections to the electronic energy:
(perhaps to be used in another calculation)
Total thermal correction                  0.00236166 Eh       1.48 kcal/mol
Non-thermal (ZPE) correction              0.00417321 Eh       2.62 kcal/mol
-----------------------------------------------------------------------
Total correction                          0.00653487 Eh       4.10 kcal/mol

--------
ENTHALPY
--------

The enthalpy is H = U + kB*T
                kB is Boltzmann's constant
Total free energy                 ...   -147.42502142 Eh
Thermal Enthalpy correction       ...      0.00094421 Eh       0.59 kcal/mol
-----------------------------------------------------------------------
Total Enthalpy                    ...   -147.42407721 Eh

Note: Rotational entropy computed according to Herzberg
Infrared and Raman Spectra, Chapter V,1, Van Nostrand Reinhold, 1945
Point Group:  Cinfv, Symmetry Number:   1
Rotational constants in cm-1:     0.000000     6.590100     6.590100

Vibrational entropy computed according to the QRRHO of S. Grimme
Chem.Eur.J. 2012 18 9955

-------
ENTROPY
-------

The entropy contributions are T*S = T*(S(el)+S(vib)+S(rot)+S(trans))
     S(el)   - electronic entropy
     S(vib)  - vibrational entropy
     S(rot)  - rotational entropy
     S(trans)- translational entropy
The entropies will be listed as mutliplied by the temperature to get
units of energy

Electronic entropy                ...      0.00000000 Eh      0.00 kcal/mol
Vibrational entropy               ...      0.00000135 Eh      0.00 kcal/mol
Rotational entropy                ...      0.00419994 Eh      2.64 kcal/mol
Translational entropy             ...      0.01899171 Eh     11.92 kcal/mol
-----------------------------------------------------------------------
Final entropy term                ...      0.02319300 Eh     14.55 kcal/mol

In case the symmetry of your molecule has not been determined correctly
or in case you have a reason to use a different symmetry number we print
out the resulting rotational entropy values for sn=1,12 :
 --------------------------------------------------------
|  sn= 1 | S(rot)=             -inf Eh      -inf kcal/mol|
|  sn= 2 | S(rot)=             -inf Eh      -inf kcal/mol|
|  sn= 3 | S(rot)=             -inf Eh      -inf kcal/mol|
|  sn= 4 | S(rot)=             -inf Eh      -inf kcal/mol|
|  sn= 5 | S(rot)=             -inf Eh      -inf kcal/mol|
|  sn= 6 | S(rot)=             -inf Eh      -inf kcal/mol|
|  sn= 7 | S(rot)=             -inf Eh      -inf kcal/mol|
|  sn= 8 | S(rot)=             -inf Eh      -inf kcal/mol|
|  sn= 9 | S(rot)=             -inf Eh      -inf kcal/mol|
|  sn=10 | S(rot)=             -inf Eh      -inf kcal/mol|
|  sn=11 | S(rot)=             -inf Eh      -inf kcal/mol|
|  sn=12 | S(rot)=             -inf Eh      -inf kcal/mol|
 --------------------------------------------------------

-------------------
GIBBS FREE ENERGY
-------------------

The Gibbs free energy is G = H - T*S

Total enthalpy                    ...   -147.42407721 Eh
Total entropy correction          ...     -0.02319300 Eh    -14.55 kcal/mol
-----------------------------------------------------------------------
Final Gibbs free energy         ...   -147.44727021 Eh

For completeness - the Gibbs free energy minus the electronic energy
G-E(el)                           ...     -0.01571392 Eh     -9.86 kcal/mol

                             ****ORCA TERMINATED NORMALLY****
TOTAL RUN TIME: 0 days 0 hours 0 minutes 50 seconds 392 msec
