                         Program Version 4.2.0 -  RELEASE  -
|  1> #
|  2> # Ag01N0_F ri-DSD-BLYP/2013-D3BJ/Def2-TZVPPD
|  3> #
|  4> ! rijk ri-dsd-blyp/2013 d3bj def2-tzvppd def2/jk def2-tzvppd/c grid4 nofinalgrid opt xyzfile numfreq
|  5>
|  6> *xyz 0 1
|  7> Ag       0.000000    0.000000    0.317712
|  8> F        0.000000    0.000000   -1.659163
|  9> *
| 10>
| 11> %maxcore 5000
| 12>
| 13> %pal
| 14> nprocs = 24
| 15> end
| 16>
| 17>
| 18>                          ****END OF INPUT****
 Total Charge           Charge          ....    0
 Multiplicity           Mult            ....    1
 Number of Electrons    NEL             ....   28
Dispersion correction            ... done
MP2 TOTAL ENERGY:     -246.662016704 Eh
Dispersion correction           -0.000799400
FINAL SINGLE POINT ENERGY      -246.662816103614
Dispersion correction            ... done
MP2 TOTAL ENERGY:     -246.662030377 Eh
Dispersion correction           -0.000798801
FINAL SINGLE POINT ENERGY      -246.662829178423
Dispersion correction            ... done
MP2 TOTAL ENERGY:     -246.662049064 Eh
Dispersion correction           -0.000797127
FINAL SINGLE POINT ENERGY      -246.662846190864
                    ***********************HURRAY********************

CARTESIAN COORDINATES (ANGSTROEM)
---------------------------------
  Ag     0.000000    0.000000    0.322875
  F      0.000000    0.000000   -1.664326

 Multiplicity           Mult            ....    1
 Number of Electrons    NEL             ....   28
 Basis Dimension        Dim             ....   96

ORBITAL ENERGIES
----------------

  NO   OCC          E(Eh)            E(eV)
   0   2.0000     -25.562583      -695.5932
   1   2.0000      -4.151887      -112.9786
   2   2.0000      -2.656979       -72.3001
   3   2.0000      -2.656979       -72.3001
   4   2.0000      -2.656102       -72.2762
   5   2.0000      -1.256157       -34.1818
   6   2.0000      -0.517536       -14.0829
   7   2.0000      -0.497246       -13.5308
   8   2.0000      -0.497246       -13.5308
   9   2.0000      -0.482835       -13.1386
  10   2.0000      -0.482835       -13.1386
  11   2.0000      -0.401273       -10.9192
  12   2.0000      -0.401273       -10.9192
  13   2.0000      -0.380899       -10.3648
  14   0.0000      -0.057002        -1.5511
  15   0.0000       0.037199         1.0122
  16   0.0000       0.037199         1.0122
  17   0.0000       0.074378         2.0239
  18   0.0000       0.138953         3.7811

Dispersion correction            ... done

MULLIKEN ATOMIC CHARGES
-----------------------
   0 Ag:    0.725446
   1 F :   -0.725446
Sum of atomic charges:   -0.0000000

LOEWDIN ATOMIC CHARGES
----------------------
   0 Ag:    0.727676
   1 F :   -0.727676

  Mayer bond orders larger than 0.100000
B(  0-Ag,  1-F ) :   0.4287

MP2 TOTAL ENERGY:     -246.662049177 Eh
Dispersion correction           -0.000797091
FINAL SINGLE POINT ENERGY      -246.662846267503

DIPOLE MOMENT
-------------
                                X             Y             Z
Electronic contribution:      0.00000      -0.00000      20.44666
Nuclear contribution   :      0.00000       0.00000     -18.05195
                        -----------------------------------------
Total Dipole Moment    :      0.00000      -0.00000       2.39470
                        -----------------------------------------
Magnitude (a.u.)       :      2.39470
Magnitude (Debye)      :      6.08685

VIBRATIONAL FREQUENCIES
-----------------------

Scaling factor for frequencies =  1.000000000 (already applied!)

   0:         0.00 cm**-1
   1:         0.00 cm**-1
   2:         0.00 cm**-1
   3:         0.00 cm**-1
   4:         0.00 cm**-1
   5:       503.52 cm**-1

IR SPECTRUM
-----------

 Mode    freq (cm**-1)   T**2         TX         TY         TZ
-------------------------------------------------------------------
   5:       503.52   58.153918  ( -0.000001   0.000004   7.625872)

--------------------------
THERMOCHEMISTRY AT 298.15K
--------------------------

Temperature         ... 298.15 K
Pressure            ... 1.00 atm
Total Mass          ... 126.87 AMU
The molecule is recognized as being linear

Throughout the following assumptions are being made:
  (1) The electronic state is orbitally nondegenerate
  (2) There are no thermally accessible electronically excited states
  (3) Hindered rotations indicated by low frequency modes are not
      treated as such but are treated as vibrations and this may
      cause some error
  (4) All equations used are the standard statistical mechanics
      equations for an ideal gas
  (5) All vibrations are strictly harmonic

freq.     503.52  E(vib)   ...       0.14

------------
INNER ENERGY
------------

The inner energy is: U= E(el) + E(ZPE) + E(vib) + E(rot) + E(trans)
    E(el)   - is the total energy from the electronic structure calculation
              = E(kin-el) + E(nuc-el) + E(el-el) + E(nuc-nuc)
    E(ZPE)  - the the zero temperature vibrational energy from the frequency calculation
    E(vib)  - the the finite temperature correction to E(ZPE) due to population
              of excited vibrational states
    E(rot)  - is the rotational thermal energy
    E(trans)- is the translational thermal energy

Summary of contributions to the inner energy U:
Electronic energy                ...   -246.66284613 Eh
Zero point energy                ...      0.00114709 Eh       0.72 kcal/mol
Thermal vibrational correction   ...      0.00022153 Eh       0.14 kcal/mol
Thermal rotational correction    ...      0.00094418 Eh       0.59 kcal/mol
Thermal translational correction ...      0.00141627 Eh       0.89 kcal/mol
-----------------------------------------------------------------------
Total thermal energy                   -246.65911706 Eh

Summary of corrections to the electronic energy:
(perhaps to be used in another calculation)
Total thermal correction                  0.00258199 Eh       1.62 kcal/mol
Non-thermal (ZPE) correction              0.00114709 Eh       0.72 kcal/mol
-----------------------------------------------------------------------
Total correction                          0.00372908 Eh       2.34 kcal/mol

--------
ENTHALPY
--------

The enthalpy is H = U + kB*T
                kB is Boltzmann's constant
Total free energy                 ...   -246.65911706 Eh
Thermal Enthalpy correction       ...      0.00094421 Eh       0.59 kcal/mol
-----------------------------------------------------------------------
Total Enthalpy                    ...   -246.65817285 Eh

Note: Rotational entropy computed according to Herzberg
Infrared and Raman Spectra, Chapter V,1, Van Nostrand Reinhold, 1945
Point Group:  Cinfv, Symmetry Number:   1
Rotational constants in cm-1:     0.000000     0.264276     0.264276

Vibrational entropy computed according to the QRRHO of S. Grimme
Chem.Eur.J. 2012 18 9955

-------
ENTROPY
-------

The entropy contributions are T*S = T*(S(el)+S(vib)+S(rot)+S(trans))
     S(el)   - electronic entropy
     S(vib)  - vibrational entropy
     S(rot)  - rotational entropy
     S(trans)- translational entropy
The entropies will be listed as mutliplied by the temperature to get
units of energy

Electronic entropy                ...      0.00000000 Eh      0.00 kcal/mol
Vibrational entropy               ...      0.00030900 Eh      0.19 kcal/mol
Rotational entropy                ...      0.00723674 Eh      4.54 kcal/mol
Translational entropy             ...      0.01920828 Eh     12.05 kcal/mol
-----------------------------------------------------------------------
Final entropy term                ...      0.02675403 Eh     16.79 kcal/mol

In case the symmetry of your molecule has not been determined correctly
or in case you have a reason to use a different symmetry number we print
out the resulting rotational entropy values for sn=1,12 :
 --------------------------------------------------------
|  sn= 1 | S(rot)=             -inf Eh      -inf kcal/mol|
|  sn= 2 | S(rot)=             -inf Eh      -inf kcal/mol|
|  sn= 3 | S(rot)=             -inf Eh      -inf kcal/mol|
|  sn= 4 | S(rot)=             -inf Eh      -inf kcal/mol|
|  sn= 5 | S(rot)=             -inf Eh      -inf kcal/mol|
|  sn= 6 | S(rot)=             -inf Eh      -inf kcal/mol|
|  sn= 7 | S(rot)=             -inf Eh      -inf kcal/mol|
|  sn= 8 | S(rot)=             -inf Eh      -inf kcal/mol|
|  sn= 9 | S(rot)=             -inf Eh      -inf kcal/mol|
|  sn=10 | S(rot)=             -inf Eh      -inf kcal/mol|
|  sn=11 | S(rot)=             -inf Eh      -inf kcal/mol|
|  sn=12 | S(rot)=             -inf Eh      -inf kcal/mol|
 --------------------------------------------------------

-------------------
GIBBS FREE ENERGY
-------------------

The Gibbs free energy is G = H - T*S

Total enthalpy                    ...   -246.65817285 Eh
Total entropy correction          ...     -0.02675403 Eh    -16.79 kcal/mol
-----------------------------------------------------------------------
Final Gibbs free energy         ...   -246.68492688 Eh

For completeness - the Gibbs free energy minus the electronic energy
G-E(el)                           ...     -0.02208074 Eh    -13.86 kcal/mol

                             ****ORCA TERMINATED NORMALLY****
TOTAL RUN TIME: 0 days 0 hours 1 minutes 14 seconds 715 msec
