                         Program Version 4.2.0 -  RELEASE  -
|  1> #
|  2> # Ag02N0 ri-DSD-BLYP/2013-D3BJ/Def2-TZVPPD
|  3> #
|  4> ! rijk ri-dsd-blyp/2013 d3bj def2-tzvppd def2/jk def2-tzvppd/c grid4 nofinalgrid opt xyzfile numfreq
|  5>
|  6> *xyz 0 1
|  7> Ag       0.000000    0.000000    1.261821
|  8> Ag       0.000000    0.000000   -1.261821
|  9> *
| 10>
| 11> %maxcore 5000
| 12>
| 13> %pal
| 14> nprocs = 24
| 15> end
| 16>
| 17>
| 18>                          ****END OF INPUT****
 Total Charge           Charge          ....    0
 Multiplicity           Mult            ....    1
 Number of Electrons    NEL             ....   38
Dispersion correction            ... done
MP2 TOTAL ENERGY:     -293.751385852 Eh
Dispersion correction           -0.004234218
FINAL SINGLE POINT ENERGY      -293.755620070436
Dispersion correction            ... done
MP2 TOTAL ENERGY:     -293.751389220 Eh
Dispersion correction           -0.004232235
FINAL SINGLE POINT ENERGY      -293.755621455304
Dispersion correction            ... done
MP2 TOTAL ENERGY:     -293.751419951 Eh
Dispersion correction           -0.004209357
FINAL SINGLE POINT ENERGY      -293.755629308771
                    ***********************HURRAY********************

CARTESIAN COORDINATES (ANGSTROEM)
---------------------------------
  Ag     0.000000    0.000000    1.265817
  Ag     0.000000    0.000000   -1.265817

 Multiplicity           Mult            ....    1
 Number of Electrons    NEL             ....   38
 Basis Dimension        Dim             ....  112

ORBITAL ENERGIES
----------------

  NO   OCC          E(Eh)            E(eV)
   0   2.0000      -4.107274      -111.7646
   1   2.0000      -4.106498      -111.7435
   2   2.0000      -2.616087       -71.1873
   3   2.0000      -2.609121       -70.9978
   4   2.0000      -2.609121       -70.9978
   5   2.0000      -2.608402       -70.9782
   6   2.0000      -2.608402       -70.9782
   7   2.0000      -2.607584       -70.9560
   8   2.0000      -0.475487       -12.9387
   9   2.0000      -0.457769       -12.4565
  10   2.0000      -0.457769       -12.4565
  11   2.0000      -0.436814       -11.8863
  12   2.0000      -0.436813       -11.8863
  13   2.0000      -0.428878       -11.6704
  14   2.0000      -0.428877       -11.6703
  15   2.0000      -0.414550       -11.2805
  16   2.0000      -0.414550       -11.2805
  17   2.0000      -0.403848       -10.9893
  18   2.0000      -0.226916        -6.1747
  19   0.0000      -0.028247        -0.7686
  20   0.0000       0.025971         0.7067
  21   0.0000       0.025971         0.7067
  22   0.0000       0.047497         1.2925
  23   0.0000       0.084016         2.2862

Dispersion correction            ... done

MULLIKEN ATOMIC CHARGES
-----------------------
   0 Ag:   -0.000001
   1 Ag:    0.000001
Sum of atomic charges:   -0.0000000

LOEWDIN ATOMIC CHARGES
----------------------
   0 Ag:   -0.000000
   1 Ag:    0.000000

  Mayer bond orders larger than 0.100000
B(  0-Ag,  1-Ag) :   0.9761

MP2 TOTAL ENERGY:     -293.751419803 Eh
Dispersion correction           -0.004208953
FINAL SINGLE POINT ENERGY      -293.755628756101

DIPOLE MOMENT
-------------
                                X             Y             Z
Electronic contribution:     -0.00000       0.00000      -0.00000
Nuclear contribution   :      0.00000       0.00000       0.00000
                        -----------------------------------------
Total Dipole Moment    :     -0.00000       0.00000      -0.00000
                        -----------------------------------------
Magnitude (a.u.)       :      0.00000
Magnitude (Debye)      :      0.00000

VIBRATIONAL FREQUENCIES
-----------------------

Scaling factor for frequencies =  1.000000000 (already applied!)

   0:         0.00 cm**-1
   1:         0.00 cm**-1
   2:         0.00 cm**-1
   3:         0.00 cm**-1
   4:         0.00 cm**-1
   5:       193.91 cm**-1

IR SPECTRUM
-----------

 Mode    freq (cm**-1)   T**2         TX         TY         TZ
-------------------------------------------------------------------
   5:       193.91    0.000000  ( -0.000002  -0.000005   0.000004)

--------------------------
THERMOCHEMISTRY AT 298.15K
--------------------------

Temperature         ... 298.15 K
Pressure            ... 1.00 atm
Total Mass          ... 215.74 AMU
The molecule is recognized as being linear

Throughout the following assumptions are being made:
  (1) The electronic state is orbitally nondegenerate
  (2) There are no thermally accessible electronically excited states
  (3) Hindered rotations indicated by low frequency modes are not
      treated as such but are treated as vibrations and this may
      cause some error
  (4) All equations used are the standard statistical mechanics
      equations for an ideal gas
  (5) All vibrations are strictly harmonic

freq.     193.91  E(vib)   ...       0.36

------------
INNER ENERGY
------------

The inner energy is: U= E(el) + E(ZPE) + E(vib) + E(rot) + E(trans)
    E(el)   - is the total energy from the electronic structure calculation
              = E(kin-el) + E(nuc-el) + E(el-el) + E(nuc-nuc)
    E(ZPE)  - the the zero temperature vibrational energy from the frequency calculation
    E(vib)  - the the finite temperature correction to E(ZPE) due to population
              of excited vibrational states
    E(rot)  - is the rotational thermal energy
    E(trans)- is the translational thermal energy

Summary of contributions to the inner energy U:
Electronic energy                ...   -293.75562876 Eh
Zero point energy                ...      0.00044176 Eh       0.28 kcal/mol
Thermal vibrational correction   ...      0.00057036 Eh       0.36 kcal/mol
Thermal rotational correction    ...      0.00094418 Eh       0.59 kcal/mol
Thermal translational correction ...      0.00141627 Eh       0.89 kcal/mol
-----------------------------------------------------------------------
Total thermal energy                   -293.75225619 Eh

Summary of corrections to the electronic energy:
(perhaps to be used in another calculation)
Total thermal correction                  0.00293081 Eh       1.84 kcal/mol
Non-thermal (ZPE) correction              0.00044176 Eh       0.28 kcal/mol
-----------------------------------------------------------------------
Total correction                          0.00337257 Eh       2.12 kcal/mol

--------
ENTHALPY
--------

The enthalpy is H = U + kB*T
                kB is Boltzmann's constant
Total free energy                 ...   -293.75225619 Eh
Thermal Enthalpy correction       ...      0.00094421 Eh       0.59 kcal/mol
-----------------------------------------------------------------------
Total Enthalpy                    ...   -293.75131198 Eh

Note: Rotational entropy computed according to Herzberg
Infrared and Raman Spectra, Chapter V,1, Van Nostrand Reinhold, 1945
Point Group:  Dinfh, Symmetry Number:   2
Rotational constants in cm-1:     0.000000     0.048767     0.048767

Vibrational entropy computed according to the QRRHO of S. Grimme
Chem.Eur.J. 2012 18 9955

-------
ENTROPY
-------

The entropy contributions are T*S = T*(S(el)+S(vib)+S(rot)+S(trans))
     S(el)   - electronic entropy
     S(vib)  - vibrational entropy
     S(rot)  - rotational entropy
     S(trans)- translational entropy
The entropies will be listed as mutliplied by the temperature to get
units of energy

Electronic entropy                ...      0.00000000 Eh      0.00 kcal/mol
Vibrational entropy               ...      0.00104084 Eh      0.65 kcal/mol
Rotational entropy                ...      0.00817790 Eh      5.13 kcal/mol
Translational entropy             ...      0.01996022 Eh     12.53 kcal/mol
-----------------------------------------------------------------------
Final entropy term                ...      0.02917896 Eh     18.31 kcal/mol

In case the symmetry of your molecule has not been determined correctly
or in case you have a reason to use a different symmetry number we print
out the resulting rotational entropy values for sn=1,12 :
 --------------------------------------------------------
|  sn= 1 | S(rot)=             -inf Eh      -inf kcal/mol|
|  sn= 2 | S(rot)=             -inf Eh      -inf kcal/mol|
|  sn= 3 | S(rot)=             -inf Eh      -inf kcal/mol|
|  sn= 4 | S(rot)=             -inf Eh      -inf kcal/mol|
|  sn= 5 | S(rot)=             -inf Eh      -inf kcal/mol|
|  sn= 6 | S(rot)=             -inf Eh      -inf kcal/mol|
|  sn= 7 | S(rot)=             -inf Eh      -inf kcal/mol|
|  sn= 8 | S(rot)=             -inf Eh      -inf kcal/mol|
|  sn= 9 | S(rot)=             -inf Eh      -inf kcal/mol|
|  sn=10 | S(rot)=             -inf Eh      -inf kcal/mol|
|  sn=11 | S(rot)=             -inf Eh      -inf kcal/mol|
|  sn=12 | S(rot)=             -inf Eh      -inf kcal/mol|
 --------------------------------------------------------

-------------------
GIBBS FREE ENERGY
-------------------

The Gibbs free energy is G = H - T*S

Total enthalpy                    ...   -293.75131198 Eh
Total entropy correction          ...     -0.02917896 Eh    -18.31 kcal/mol
-----------------------------------------------------------------------
Final Gibbs free energy         ...   -293.78049094 Eh

For completeness - the Gibbs free energy minus the electronic energy
G-E(el)                           ...     -0.02486218 Eh    -15.60 kcal/mol

                             ****ORCA TERMINATED NORMALLY****
TOTAL RUN TIME: 0 days 0 hours 1 minutes 39 seconds 608 msec
