                         Program Version 4.2.0 -  RELEASE  -
|  1> #
|  2> # Ag03C1_D3H ri-DSD-BLYP/2013-D3BJ/Def2-TZVPPD
|  3> #
|  4> ! rijk ri-dsd-blyp/2013 d3bj def2-tzvppd def2/jk def2-tzvppd/c grid4 nofinalgrid opt xyzfile numfreq
|  5>
|  6> *xyz 1 1
|  7> Ag       0.000000    1.529877    0.000000
|  8> Ag       1.324912   -0.764938    0.000000
|  9> Ag      -1.324912   -0.764938    0.000000
| 10> *
| 11>
| 12> %maxcore 5000
| 13>
| 14> %pal
| 15> nprocs = 24
| 16> end
| 17>
| 18>
| 19>                          ****END OF INPUT****
 Total Charge           Charge          ....    1
 Multiplicity           Mult            ....    1
 Number of Electrons    NEL             ....   56
Dispersion correction            ... done
MP2 TOTAL ENERGY:     -440.422140632 Eh
Dispersion correction           -0.011324808
FINAL SINGLE POINT ENERGY      -440.433465440273
Dispersion correction            ... done
MP2 TOTAL ENERGY:     -440.422148380 Eh
Dispersion correction           -0.011319225
FINAL SINGLE POINT ENERGY      -440.433467604422
Dispersion correction            ... done
MP2 TOTAL ENERGY:     -440.422228817 Eh
Dispersion correction           -0.011251216
FINAL SINGLE POINT ENERGY      -440.433480032533
                    ***********************HURRAY********************

CARTESIAN COORDINATES (ANGSTROEM)
---------------------------------
  Ag    -0.000000    1.534470    0.000000
  Ag     1.328428   -0.767235    0.000000
  Ag    -1.328428   -0.767235    0.000000

 Multiplicity           Mult            ....    1
 Number of Electrons    NEL             ....   56
 Basis Dimension        Dim             ....  168

ORBITAL ENERGIES
----------------

  NO   OCC          E(Eh)            E(eV)
   0   2.0000      -4.308285      -117.2344
   1   2.0000      -4.307659      -117.2174
   2   2.0000      -4.307656      -117.2173
   3   2.0000      -2.816760       -76.6479
   4   2.0000      -2.813700       -76.5647
   5   2.0000      -2.813695       -76.5645
   6   2.0000      -2.810258       -76.4710
   7   2.0000      -2.810089       -76.4664
   8   2.0000      -2.809620       -76.4536
   9   2.0000      -2.809615       -76.4535
  10   2.0000      -2.809542       -76.4515
  11   2.0000      -2.809541       -76.4515
  12   2.0000      -0.684157       -18.6169
  13   2.0000      -0.667970       -18.1764
  14   2.0000      -0.667927       -18.1752
  15   2.0000      -0.663074       -18.0432
  16   2.0000      -0.648693       -17.6518
  17   2.0000      -0.645649       -17.5690
  18   2.0000      -0.645632       -17.5686
  19   2.0000      -0.625351       -17.0167
  20   2.0000      -0.625324       -17.0159
  21   2.0000      -0.622410       -16.9366
  22   2.0000      -0.617834       -16.8121
  23   2.0000      -0.617825       -16.8119
  24   2.0000      -0.615108       -16.7379
  25   2.0000      -0.615079       -16.7371
  26   2.0000      -0.594062       -16.1653
  27   2.0000      -0.447999       -12.1907
  28   0.0000      -0.194755        -5.2996
  29   0.0000      -0.194727        -5.2988
  30   0.0000      -0.142104        -3.8668
  31   0.0000      -0.109622        -2.9830
  32   0.0000      -0.092878        -2.5273

Dispersion correction            ... done

MULLIKEN ATOMIC CHARGES
-----------------------
   0 Ag:    0.333428
   1 Ag:    0.333286
   2 Ag:    0.333286
Sum of atomic charges:    1.0000000

LOEWDIN ATOMIC CHARGES
----------------------
   0 Ag:    0.333410
   1 Ag:    0.333295
   2 Ag:    0.333295

  Mayer bond orders larger than 0.100000
B(  0-Ag,  1-Ag) :   0.4954 B(  0-Ag,  2-Ag) :   0.4954 B(  1-Ag,  2-Ag) :   0.4956

MP2 TOTAL ENERGY:     -440.422229894 Eh
Dispersion correction           -0.011250090
FINAL SINGLE POINT ENERGY      -440.433479984144

DIPOLE MOMENT
-------------
                                X             Y             Z
Electronic contribution:      0.00000       0.00039      -0.00000
Nuclear contribution   :      0.00000      -0.00000       0.00000
                        -----------------------------------------
Total Dipole Moment    :      0.00000       0.00039      -0.00000
                        -----------------------------------------
Magnitude (a.u.)       :      0.00039
Magnitude (Debye)      :      0.00099

VIBRATIONAL FREQUENCIES
-----------------------

Scaling factor for frequencies =  1.000000000 (already applied!)

   0:         0.00 cm**-1
   1:         0.00 cm**-1
   2:         0.00 cm**-1
   3:         0.00 cm**-1
   4:         0.00 cm**-1
   5:         0.00 cm**-1
   6:       125.44 cm**-1
   7:       125.90 cm**-1
   8:       183.84 cm**-1

IR SPECTRUM
-----------

 Mode    freq (cm**-1)   T**2         TX         TY         TZ
-------------------------------------------------------------------
   6:       125.44    1.691904  ( -1.300731   0.001369  -0.000000)
   7:       125.90    1.842406  (  0.001313   1.357352  -0.000005)
   8:       183.84    0.000002  ( -0.000019   0.001284   0.000001)

--------------------------
THERMOCHEMISTRY AT 298.15K
--------------------------

Temperature         ... 298.15 K
Pressure            ... 1.00 atm
Total Mass          ... 323.61 AMU

Throughout the following assumptions are being made:
  (1) The electronic state is orbitally nondegenerate
  (2) There are no thermally accessible electronically excited states
  (3) Hindered rotations indicated by low frequency modes are not
      treated as such but are treated as vibrations and this may
      cause some error
  (4) All equations used are the standard statistical mechanics
      equations for an ideal gas
  (5) All vibrations are strictly harmonic

freq.     125.44  E(vib)   ...       0.43
freq.     125.90  E(vib)   ...       0.43
freq.     183.84  E(vib)   ...       0.37

------------
INNER ENERGY
------------

The inner energy is: U= E(el) + E(ZPE) + E(vib) + E(rot) + E(trans)
    E(el)   - is the total energy from the electronic structure calculation
              = E(kin-el) + E(nuc-el) + E(el-el) + E(nuc-nuc)
    E(ZPE)  - the the zero temperature vibrational energy from the frequency calculation
    E(vib)  - the the finite temperature correction to E(ZPE) due to population
              of excited vibrational states
    E(rot)  - is the rotational thermal energy
    E(trans)- is the translational thermal energy

Summary of contributions to the inner energy U:
Electronic energy                ...   -440.43348002 Eh
Zero point energy                ...      0.00099141 Eh       0.62 kcal/mol
Thermal vibrational correction   ...      0.00195987 Eh       1.23 kcal/mol
Thermal rotational correction    ...      0.00141627 Eh       0.89 kcal/mol
Thermal translational correction ...      0.00141627 Eh       0.89 kcal/mol
-----------------------------------------------------------------------
Total thermal energy                   -440.42769620 Eh

Summary of corrections to the electronic energy:
(perhaps to be used in another calculation)
Total thermal correction                  0.00479241 Eh       3.01 kcal/mol
Non-thermal (ZPE) correction              0.00099141 Eh       0.62 kcal/mol
-----------------------------------------------------------------------
Total correction                          0.00578382 Eh       3.63 kcal/mol

--------
ENTHALPY
--------

The enthalpy is H = U + kB*T
                kB is Boltzmann's constant
Total free energy                 ...   -440.42769620 Eh
Thermal Enthalpy correction       ...      0.00094421 Eh       0.59 kcal/mol
-----------------------------------------------------------------------
Total Enthalpy                    ...   -440.42675199 Eh

Note: Rotational entropy computed according to Herzberg
Infrared and Raman Spectra, Chapter V,1, Van Nostrand Reinhold, 1945
Point Group:  C2v, Symmetry Number:   2
Rotational constants in cm-1:     0.044278     0.044247     0.022131

Vibrational entropy computed according to the QRRHO of S. Grimme
Chem.Eur.J. 2012 18 9955

-------
ENTROPY
-------

The entropy contributions are T*S = T*(S(el)+S(vib)+S(rot)+S(trans))
     S(el)   - electronic entropy
     S(vib)  - vibrational entropy
     S(rot)  - rotational entropy
     S(trans)- translational entropy
The entropies will be listed as mutliplied by the temperature to get
units of energy

Electronic entropy                ...      0.00000000 Eh      0.00 kcal/mol
Vibrational entropy               ...      0.00384349 Eh      2.41 kcal/mol
Rotational entropy                ...      0.01359896 Eh      8.53 kcal/mol
Translational entropy             ...      0.02053447 Eh     12.89 kcal/mol
-----------------------------------------------------------------------
Final entropy term                ...      0.03797692 Eh     23.83 kcal/mol

In case the symmetry of your molecule has not been determined correctly
or in case you have a reason to use a different symmetry number we print
out the resulting rotational entropy values for sn=1,12 :
 --------------------------------------------------------
|  sn= 1 | S(rot)=       0.01425342 Eh      8.94 kcal/mol|
|  sn= 2 | S(rot)=       0.01359896 Eh      8.53 kcal/mol|
|  sn= 3 | S(rot)=       0.01321613 Eh      8.29 kcal/mol|
|  sn= 4 | S(rot)=       0.01294451 Eh      8.12 kcal/mol|
|  sn= 5 | S(rot)=       0.01273382 Eh      7.99 kcal/mol|
|  sn= 6 | S(rot)=       0.01256168 Eh      7.88 kcal/mol|
|  sn= 7 | S(rot)=       0.01241613 Eh      7.79 kcal/mol|
|  sn= 8 | S(rot)=       0.01229005 Eh      7.71 kcal/mol|
|  sn= 9 | S(rot)=       0.01217884 Eh      7.64 kcal/mol|
|  sn=10 | S(rot)=       0.01207936 Eh      7.58 kcal/mol|
|  sn=11 | S(rot)=       0.01198937 Eh      7.52 kcal/mol|
|  sn=12 | S(rot)=       0.01190722 Eh      7.47 kcal/mol|
 --------------------------------------------------------

-------------------
GIBBS FREE ENERGY
-------------------

The Gibbs free energy is G = H - T*S

Total enthalpy                    ...   -440.42675199 Eh
Total entropy correction          ...     -0.03797692 Eh    -23.83 kcal/mol
-----------------------------------------------------------------------
Final Gibbs free energy         ...   -440.46472891 Eh

For completeness - the Gibbs free energy minus the electronic energy
G-E(el)                           ...     -0.03124890 Eh    -19.61 kcal/mol

                             ****ORCA TERMINATED NORMALLY****
TOTAL RUN TIME: 0 days 0 hours 4 minutes 27 seconds 338 msec
