                         Program Version 4.2.0 -  RELEASE  -
|  1> #
|  2> # Ag03N0_D3H ri-DSD-BLYP/2013-D3BJ/Def2-TZVPPD
|  3> #
|  4> ! rijk ri-dsd-blyp/2013 d3bj def2-tzvppd def2/jk def2-tzvppd/c grid4 nofinalgrid opt xyzfile numfreq
|  5>
|  6> *xyz 0 2
|  7> Ag       0.000000    1.533951   -0.000000
|  8> Ag       1.328441   -0.766976    0.000000
|  9> Ag      -1.328441   -0.766976   -0.000000
| 10> *
| 11>
| 12> %maxcore 5000
| 13>
| 14> %pal
| 15> nprocs = 24
| 16> end
| 17>
| 18>
| 19>                          ****END OF INPUT****
 Total Charge           Charge          ....    0
 Multiplicity           Mult            ....    2
 Number of Electrons    NEL             ....   57
Dispersion correction            ... done
MP2 TOTAL ENERGY:     -440.621902599 Eh
Dispersion correction           -0.011254441
FINAL SINGLE POINT ENERGY      -440.633157040808
Dispersion correction            ... done
MP2 TOTAL ENERGY:     -440.622161937 Eh
Dispersion correction           -0.011249749
FINAL SINGLE POINT ENERGY      -440.633411686108
FINAL SINGLE POINT ENERGY      -440.635085242234
FINAL SINGLE POINT ENERGY      -440.635098698395
FINAL SINGLE POINT ENERGY      -440.635116874054
FINAL SINGLE POINT ENERGY      -440.635150538747
FINAL SINGLE POINT ENERGY      -440.635163191957
Dispersion correction            ... done
MP2 TOTAL ENERGY:     -440.624175849 Eh
Dispersion correction           -0.010990331
FINAL SINGLE POINT ENERGY      -440.635166180383
                    ***********************HURRAY********************

CARTESIAN COORDINATES (ANGSTROEM)
---------------------------------
  Ag     0.000001    1.620135    0.000000
  Ag     1.278315   -0.810067    0.000000
  Ag    -1.278316   -0.810069    0.000000

 Multiplicity           Mult            ....    2
 Number of Electrons    NEL             ....   57
 Basis Dimension        Dim             ....  168

ORBITAL ENERGIES
----------------
                 SPIN UP ORBITALS
  NO   OCC          E(Eh)            E(eV)
   0   1.0000      -4.127740      -112.3215
   1   1.0000      -4.127049      -112.3027
   2   1.0000      -4.103019      -111.6488
   3   1.0000      -2.636232       -71.7355
   4   1.0000      -2.630054       -71.5674
   5   1.0000      -2.629391       -71.5494
   6   1.0000      -2.629320       -71.5474
   7   1.0000      -2.628661       -71.5295
   8   1.0000      -2.628332       -71.5205
   9   1.0000      -2.604861       -70.8819
  10   1.0000      -2.604683       -70.8770
  11   1.0000      -2.603197       -70.8366
  12   1.0000      -0.498309       -13.5597
  13   1.0000      -0.490212       -13.3393
  14   1.0000      -0.479784       -13.0556
  15   1.0000      -0.468537       -12.7496
  16   1.0000      -0.462924       -12.5968
  17   1.0000      -0.462793       -12.5932
  18   1.0000      -0.453471       -12.3396
  19   1.0000      -0.439276       -11.9533
  20   1.0000      -0.435558       -11.8521
  21   1.0000      -0.430958       -11.7270
  22   1.0000      -0.426895       -11.6164
  23   1.0000      -0.425432       -11.5766
  24   1.0000      -0.422192       -11.4884
  25   1.0000      -0.420142       -11.4326
  26   1.0000      -0.406005       -11.0480
  27   1.0000      -0.284143        -7.7319
  28   1.0000      -0.165120        -4.4932
  29   0.0000      -0.044381        -1.2077
  30   0.0000       0.005815         0.1582
  31   0.0000       0.022510         0.6125
  32   0.0000       0.041497         1.1292
  33   0.0000       0.043177         1.1749

                 SPIN DOWN ORBITALS
  NO   OCC          E(Eh)            E(eV)
   0   1.0000      -4.127383      -112.3118
   1   1.0000      -4.126695      -112.2931
   2   1.0000      -4.101179      -111.5988
   3   1.0000      -2.636128       -71.7327
   4   1.0000      -2.629803       -71.5606
   5   1.0000      -2.629744       -71.5590
   6   1.0000      -2.629475       -71.5516
   7   1.0000      -2.628839       -71.5344
   8   1.0000      -2.627750       -71.5047
   9   1.0000      -2.605316       -70.8943
  10   1.0000      -2.604257       -70.8654
  11   1.0000      -2.603128       -70.8347
  12   1.0000      -0.498351       -13.5608
  13   1.0000      -0.488337       -13.2883
  14   1.0000      -0.479461       -13.0468
  15   1.0000      -0.466467       -12.6932
  16   1.0000      -0.461813       -12.5666
  17   1.0000      -0.461083       -12.5467
  18   1.0000      -0.452733       -12.3195
  19   1.0000      -0.438877       -11.9425
  20   1.0000      -0.435737       -11.8570
  21   1.0000      -0.430904       -11.7255
  22   1.0000      -0.424411       -11.5488
  23   1.0000      -0.423216       -11.5163
  24   1.0000      -0.419268       -11.4089
  25   1.0000      -0.416756       -11.3405
  26   1.0000      -0.402193       -10.9442
  27   1.0000      -0.264765        -7.2046
  28   0.0000      -0.037626        -1.0239
  29   0.0000      -0.019155        -0.5212
  30   0.0000       0.011747         0.3197
  31   0.0000       0.035226         0.9586
  32   0.0000       0.059141         1.6093

Dispersion correction            ... done

MULLIKEN ATOMIC CHARGES AND SPIN DENSITIES
------------------------------------------
   0 Ag:   -0.126683    0.626692
   1 Ag:    0.063342    0.186652
   2 Ag:    0.063341    0.186656
Sum of atomic charges       :   -0.0000000

LOEWDIN ATOMIC CHARGES AND SPIN DENSITIES
-----------------------------------------
   0 Ag:   -0.079783    0.501955
   1 Ag:    0.039892    0.249022
   2 Ag:    0.039891    0.249024

  Mayer bond orders larger than 0.100000
B(  0-Ag,  1-Ag) :   0.4253 B(  0-Ag,  2-Ag) :   0.4253 B(  1-Ag,  2-Ag) :   0.7416

MP2 TOTAL ENERGY:     -440.624174629 Eh
Dispersion correction           -0.010991684
FINAL SINGLE POINT ENERGY      -440.635166313021

DIPOLE MOMENT
-------------
                                X             Y             Z
Electronic contribution:      0.00000      -0.50211      -0.00000
Nuclear contribution   :     -0.00000       0.00000       0.00000
                        -----------------------------------------
Total Dipole Moment    :      0.00000      -0.50211      -0.00000
                        -----------------------------------------
Magnitude (a.u.)       :      0.50211
Magnitude (Debye)      :      1.27626

VIBRATIONAL FREQUENCIES
-----------------------

Scaling factor for frequencies =  1.000000000 (already applied!)

   0:         0.00 cm**-1
   1:         0.00 cm**-1
   2:         0.00 cm**-1
   3:         0.00 cm**-1
   4:         0.00 cm**-1
   5:         0.00 cm**-1
   6:       -16.64 cm**-1 ***imaginary mode***
   7:       123.26 cm**-1
   8:       192.47 cm**-1

IR SPECTRUM
-----------

 Mode    freq (cm**-1)   T**2         TX         TY         TZ
-------------------------------------------------------------------
   7:       123.26    0.196543  (  0.324411  -0.302160   0.000009)
   8:       192.47    0.374338  (  0.098389  -0.603869  -0.000005)

--------------------------
THERMOCHEMISTRY AT 298.15K
--------------------------

Temperature         ... 298.15 K
Pressure            ... 1.00 atm
Total Mass          ... 323.61 AMU

Throughout the following assumptions are being made:
  (1) The electronic state is orbitally nondegenerate
      but the spin degeneracy is treated
  (2) There are no thermally accessible electronically excited states
  (3) Hindered rotations indicated by low frequency modes are not
      treated as such but are treated as vibrations and this may
      cause some error
  (4) All equations used are the standard statistical mechanics
      equations for an ideal gas
  (5) All vibrations are strictly harmonic

freq.     123.26  E(vib)   ...       0.43
freq.     192.47  E(vib)   ...       0.36

------------
INNER ENERGY
------------

The inner energy is: U= E(el) + E(ZPE) + E(vib) + E(rot) + E(trans)
    E(el)   - is the total energy from the electronic structure calculation
              = E(kin-el) + E(nuc-el) + E(el-el) + E(nuc-nuc)
    E(ZPE)  - the the zero temperature vibrational energy from the frequency calculation
    E(vib)  - the the finite temperature correction to E(ZPE) due to population
              of excited vibrational states
    E(rot)  - is the rotational thermal energy
    E(trans)- is the translational thermal energy

Summary of contributions to the inner energy U:
Electronic energy                ...   -440.63516646 Eh
Zero point energy                ...      0.00071929 Eh       0.45 kcal/mol
Thermal vibrational correction   ...      0.00126373 Eh       0.79 kcal/mol
Thermal rotational correction    ...      0.00141627 Eh       0.89 kcal/mol
Thermal translational correction ...      0.00141627 Eh       0.89 kcal/mol
-----------------------------------------------------------------------
Total thermal energy                   -440.63035090 Eh

Summary of corrections to the electronic energy:
(perhaps to be used in another calculation)
Total thermal correction                  0.00409627 Eh       2.57 kcal/mol
Non-thermal (ZPE) correction              0.00071929 Eh       0.45 kcal/mol
-----------------------------------------------------------------------
Total correction                          0.00481555 Eh       3.02 kcal/mol

--------
ENTHALPY
--------

The enthalpy is H = U + kB*T
                kB is Boltzmann's constant
Total free energy                 ...   -440.63035090 Eh
Thermal Enthalpy correction       ...      0.00094421 Eh       0.59 kcal/mol
-----------------------------------------------------------------------
Total Enthalpy                    ...   -440.62940669 Eh

Note: Rotational entropy computed according to Herzberg
Infrared and Raman Spectra, Chapter V,1, Van Nostrand Reinhold, 1945
Point Group:  Cs, Symmetry Number:   1
Rotational constants in cm-1:     0.047818     0.039692     0.021689

Vibrational entropy computed according to the QRRHO of S. Grimme
Chem.Eur.J. 2012 18 9955

-------
ENTROPY
-------

The entropy contributions are T*S = T*(S(el)+S(vib)+S(rot)+S(trans))
     S(el)   - electronic entropy
     S(vib)  - vibrational entropy
     S(rot)  - rotational entropy
     S(trans)- translational entropy
The entropies will be listed as mutliplied by the temperature to get
units of energy

Electronic entropy                ...      0.00065446 Eh      0.41 kcal/mol
Vibrational entropy               ...      0.00243807 Eh      1.53 kcal/mol
Rotational entropy                ...      0.01427794 Eh      8.96 kcal/mol
Translational entropy             ...      0.02053447 Eh     12.89 kcal/mol
-----------------------------------------------------------------------
Final entropy term                ...      0.03790494 Eh     23.79 kcal/mol

In case the symmetry of your molecule has not been determined correctly
or in case you have a reason to use a different symmetry number we print
out the resulting rotational entropy values for sn=1,12 :
 --------------------------------------------------------
|  sn= 1 | S(rot)=       0.01427794 Eh      8.96 kcal/mol|
|  sn= 2 | S(rot)=       0.01362349 Eh      8.55 kcal/mol|
|  sn= 3 | S(rot)=       0.01324065 Eh      8.31 kcal/mol|
|  sn= 4 | S(rot)=       0.01296903 Eh      8.14 kcal/mol|
|  sn= 5 | S(rot)=       0.01275834 Eh      8.01 kcal/mol|
|  sn= 6 | S(rot)=       0.01258620 Eh      7.90 kcal/mol|
|  sn= 7 | S(rot)=       0.01244065 Eh      7.81 kcal/mol|
|  sn= 8 | S(rot)=       0.01231457 Eh      7.73 kcal/mol|
|  sn= 9 | S(rot)=       0.01220337 Eh      7.66 kcal/mol|
|  sn=10 | S(rot)=       0.01210389 Eh      7.60 kcal/mol|
|  sn=11 | S(rot)=       0.01201390 Eh      7.54 kcal/mol|
|  sn=12 | S(rot)=       0.01193174 Eh      7.49 kcal/mol|
 --------------------------------------------------------

-------------------
GIBBS FREE ENERGY
-------------------

The Gibbs free energy is G = H - T*S

Total enthalpy                    ...   -440.62940669 Eh
Total entropy correction          ...     -0.03790494 Eh    -23.79 kcal/mol
-----------------------------------------------------------------------
Final Gibbs free energy         ...   -440.66731163 Eh

For completeness - the Gibbs free energy minus the electronic energy
G-E(el)                           ...     -0.03214518 Eh    -20.17 kcal/mol

                             ****ORCA TERMINATED NORMALLY****
TOTAL RUN TIME: 0 days 0 hours 8 minutes 20 seconds 176 msec
