                         Program Version 4.2.0 -  RELEASE  -
|  1> #
|  2> # Ag03N0_LIN ri-DSD-BLYP/2013-D3BJ/Def2-TZVPPD
|  3> #
|  4> ! rijk ri-dsd-blyp/2013 d3bj def2-tzvppd def2/jk def2-tzvppd/c grid4 nofinalgrid opt xyzfile numfreq
|  5>
|  6> *xyz 0 2
|  7> Ag       0.000000    0.000000    0.000000
|  8> Ag       0.000000    0.000000    2.592532
|  9> Ag       0.000000    0.000000   -2.592532
| 10> *
| 11>
| 12> %maxcore 5000
| 13>
| 14> %pal
| 15> nprocs = 24
| 16> end
| 17>
| 18>
| 19>                          ****END OF INPUT****
 Total Charge           Charge          ....    0
 Multiplicity           Mult            ....    2
 Number of Electrons    NEL             ....   57
Dispersion correction            ... done
MP2 TOTAL ENERGY:     -440.621571556 Eh
Dispersion correction           -0.008149061
FINAL SINGLE POINT ENERGY      -440.629720617270
Dispersion correction            ... done
MP2 TOTAL ENERGY:     -440.621575635 Eh
Dispersion correction           -0.008146376
FINAL SINGLE POINT ENERGY      -440.629722010947
Dispersion correction            ... done
MP2 TOTAL ENERGY:     -440.621613946 Eh
Dispersion correction           -0.008113105
FINAL SINGLE POINT ENERGY      -440.629727051235
                    ***********************HURRAY********************

CARTESIAN COORDINATES (ANGSTROEM)
---------------------------------
  Ag     0.000000   -0.000000    0.000000
  Ag    -0.000000    0.000000    2.597848
  Ag    -0.000000    0.000000   -2.597848

 Multiplicity           Mult            ....    2
 Number of Electrons    NEL             ....   57
 Basis Dimension        Dim             ....  168

ORBITAL ENERGIES
----------------
                 SPIN UP ORBITALS
  NO   OCC          E(Eh)            E(eV)
   0   1.0000      -4.119375      -112.0939
   1   1.0000      -4.119366      -112.0937
   2   1.0000      -4.102650      -111.6388
   3   1.0000      -2.624548       -71.4176
   4   1.0000      -2.623116       -71.3786
   5   1.0000      -2.620526       -71.3082
   6   1.0000      -2.620526       -71.3082
   7   1.0000      -2.620522       -71.3080
   8   1.0000      -2.620522       -71.3080
   9   1.0000      -2.607412       -70.9513
  10   1.0000      -2.603687       -70.8499
  11   1.0000      -2.603687       -70.8499
  12   1.0000      -0.493364       -13.4251
  13   1.0000      -0.469026       -12.7629
  14   1.0000      -0.469026       -12.7629
  15   1.0000      -0.451829       -12.2949
  16   1.0000      -0.450501       -12.2588
  17   1.0000      -0.450501       -12.2588
  18   1.0000      -0.447714       -12.1829
  19   1.0000      -0.447713       -12.1829
  20   1.0000      -0.446603       -12.1527
  21   1.0000      -0.446602       -12.1527
  22   1.0000      -0.425693       -11.5837
  23   1.0000      -0.425692       -11.5837
  24   1.0000      -0.411165       -11.1884
  25   1.0000      -0.411165       -11.1884
  26   1.0000      -0.399226       -10.8635
  27   1.0000      -0.259181        -7.0527
  28   1.0000      -0.215769        -5.8714
  29   0.0000      -0.018455        -0.5022
  30   0.0000       0.012287         0.3343
  31   0.0000       0.012287         0.3343
  32   0.0000       0.041145         1.1196
  33   0.0000       0.043963         1.1963

                 SPIN DOWN ORBITALS
  NO   OCC          E(Eh)            E(eV)
   0   1.0000      -4.118000      -112.0565
   1   1.0000      -4.117990      -112.0562
   2   1.0000      -4.103566      -111.6637
   3   1.0000      -2.625185       -71.4349
   4   1.0000      -2.623941       -71.4011
   5   1.0000      -2.621378       -71.3313
   6   1.0000      -2.621378       -71.3313
   7   1.0000      -2.621357       -71.3307
   8   1.0000      -2.621357       -71.3307
   9   1.0000      -2.606894       -70.9372
  10   1.0000      -2.604461       -70.8710
  11   1.0000      -2.604461       -70.8710
  12   1.0000      -0.490423       -13.3451
  13   1.0000      -0.466582       -12.6963
  14   1.0000      -0.466582       -12.6963
  15   1.0000      -0.449961       -12.2441
  16   1.0000      -0.447719       -12.1831
  17   1.0000      -0.447719       -12.1831
  18   1.0000      -0.445049       -12.1104
  19   1.0000      -0.445048       -12.1104
  20   1.0000      -0.443756       -12.0752
  21   1.0000      -0.443755       -12.0752
  22   1.0000      -0.426768       -11.6129
  23   1.0000      -0.426767       -11.6129
  24   1.0000      -0.411844       -11.2069
  25   1.0000      -0.411844       -11.2069
  26   1.0000      -0.397730       -10.8228
  27   1.0000      -0.226110        -6.1528
  28   0.0000      -0.065393        -1.7794
  29   0.0000       0.001466         0.0399
  30   0.0000       0.020136         0.5479
  31   0.0000       0.020136         0.5479
  32   0.0000       0.056289         1.5317

Dispersion correction            ... done

MULLIKEN ATOMIC CHARGES AND SPIN DENSITIES
------------------------------------------
   0 Ag:   -0.051506   -0.105154
   1 Ag:    0.025753    0.552577
   2 Ag:    0.025753    0.552576
Sum of atomic charges       :   -0.0000000

LOEWDIN ATOMIC CHARGES AND SPIN DENSITIES
-----------------------------------------
   0 Ag:   -0.193475    0.280964
   1 Ag:    0.096738    0.359518
   2 Ag:    0.096738    0.359518

  Mayer bond orders larger than 0.100000
B(  0-Ag,  1-Ag) :   0.5643 B(  0-Ag,  2-Ag) :   0.5643 B(  1-Ag,  2-Ag) :   0.1460

MP2 TOTAL ENERGY:     -440.621613989 Eh
Dispersion correction           -0.008112629
FINAL SINGLE POINT ENERGY      -440.629726617822

DIPOLE MOMENT
-------------
                                X             Y             Z
Electronic contribution:     -0.00000       0.00000      -0.00000
Nuclear contribution   :      0.00000       0.00000       0.00000
                        -----------------------------------------
Total Dipole Moment    :     -0.00000       0.00000      -0.00000
                        -----------------------------------------
Magnitude (a.u.)       :      0.00000
Magnitude (Debye)      :      0.00000

VIBRATIONAL FREQUENCIES
-----------------------

Scaling factor for frequencies =  1.000000000 (already applied!)

   0:         0.00 cm**-1
   1:         0.00 cm**-1
   2:         0.00 cm**-1
   3:         0.00 cm**-1
   4:         0.00 cm**-1
   5:         0.00 cm**-1
   6:         6.32 cm**-1
   7:       117.33 cm**-1
   8:       183.16 cm**-1

IR SPECTRUM
-----------

 Mode    freq (cm**-1)   T**2         TX         TY         TZ
-------------------------------------------------------------------
   6:         6.32    0.293394  ( -0.274922   0.466702  -0.000005)
   7:       117.33    0.000000  (  0.000007  -0.000010   0.000066)
   8:       183.16    6.003339  ( -0.000003   0.000000  -2.450171)

--------------------------
THERMOCHEMISTRY AT 298.15K
--------------------------

Temperature         ... 298.15 K
Pressure            ... 1.00 atm
Total Mass          ... 323.61 AMU
The molecule is recognized as being linear

Throughout the following assumptions are being made:
  (1) The electronic state is orbitally nondegenerate
      but the spin degeneracy is treated
  (2) There are no thermally accessible electronically excited states
  (3) Hindered rotations indicated by low frequency modes are not
      treated as such but are treated as vibrations and this may
      cause some error
  (4) All equations used are the standard statistical mechanics
      equations for an ideal gas
  (5) All vibrations are strictly harmonic

freq.       6.32  E(vib)   ...       0.58
freq.     117.33  E(vib)   ...       0.44
freq.     183.16  E(vib)   ...       0.37

------------
INNER ENERGY
------------

The inner energy is: U= E(el) + E(ZPE) + E(vib) + E(rot) + E(trans)
    E(el)   - is the total energy from the electronic structure calculation
              = E(kin-el) + E(nuc-el) + E(el-el) + E(nuc-nuc)
    E(ZPE)  - the the zero temperature vibrational energy from the frequency calculation
    E(vib)  - the the finite temperature correction to E(ZPE) due to population
              of excited vibrational states
    E(rot)  - is the rotational thermal energy
    E(trans)- is the translational thermal energy

Summary of contributions to the inner energy U:
Electronic energy                ...   -440.62972716 Eh
Zero point energy                ...      0.00069896 Eh       0.44 kcal/mol
Thermal vibrational correction   ...      0.00221951 Eh       1.39 kcal/mol
Thermal rotational correction    ...      0.00094418 Eh       0.59 kcal/mol
Thermal translational correction ...      0.00141627 Eh       0.89 kcal/mol
-----------------------------------------------------------------------
Total thermal energy                   -440.62444824 Eh

Summary of corrections to the electronic energy:
(perhaps to be used in another calculation)
Total thermal correction                  0.00457997 Eh       2.87 kcal/mol
Non-thermal (ZPE) correction              0.00069896 Eh       0.44 kcal/mol
-----------------------------------------------------------------------
Total correction                          0.00527892 Eh       3.31 kcal/mol

--------
ENTHALPY
--------

The enthalpy is H = U + kB*T
                kB is Boltzmann's constant
Total free energy                 ...   -440.62444824 Eh
Thermal Enthalpy correction       ...      0.00094421 Eh       0.59 kcal/mol
-----------------------------------------------------------------------
Total Enthalpy                    ...   -440.62350403 Eh

Note: Rotational entropy computed according to Herzberg
Infrared and Raman Spectra, Chapter V,1, Van Nostrand Reinhold, 1945
Point Group:  Dinfh, Symmetry Number:   2
Rotational constants in cm-1:     0.000000     0.011578     0.011578

Vibrational entropy computed according to the QRRHO of S. Grimme
Chem.Eur.J. 2012 18 9955

-------
ENTROPY
-------

The entropy contributions are T*S = T*(S(el)+S(vib)+S(rot)+S(trans))
     S(el)   - electronic entropy
     S(vib)  - vibrational entropy
     S(rot)  - rotational entropy
     S(trans)- translational entropy
The entropies will be listed as mutliplied by the temperature to get
units of energy

Electronic entropy                ...      0.00065446 Eh      0.41 kcal/mol
Vibrational entropy               ...      0.00517013 Eh      3.24 kcal/mol
Rotational entropy                ...      0.00953557 Eh      5.98 kcal/mol
Translational entropy             ...      0.02053447 Eh     12.89 kcal/mol
-----------------------------------------------------------------------
Final entropy term                ...      0.03589462 Eh     22.52 kcal/mol

In case the symmetry of your molecule has not been determined correctly
or in case you have a reason to use a different symmetry number we print
out the resulting rotational entropy values for sn=1,12 :
 --------------------------------------------------------
|  sn= 1 | S(rot)=      -0.00003410 Eh     -0.02 kcal/mol|
|  sn= 2 | S(rot)=      -0.00068856 Eh     -0.43 kcal/mol|
|  sn= 3 | S(rot)=      -0.00107139 Eh     -0.67 kcal/mol|
|  sn= 4 | S(rot)=      -0.00134302 Eh     -0.84 kcal/mol|
|  sn= 5 | S(rot)=      -0.00155370 Eh     -0.97 kcal/mol|
|  sn= 6 | S(rot)=      -0.00172585 Eh     -1.08 kcal/mol|
|  sn= 7 | S(rot)=      -0.00187139 Eh     -1.17 kcal/mol|
|  sn= 8 | S(rot)=      -0.00199747 Eh     -1.25 kcal/mol|
|  sn= 9 | S(rot)=      -0.00210868 Eh     -1.32 kcal/mol|
|  sn=10 | S(rot)=      -0.00220816 Eh     -1.39 kcal/mol|
|  sn=11 | S(rot)=      -0.00229815 Eh     -1.44 kcal/mol|
|  sn=12 | S(rot)=      -0.00238030 Eh     -1.49 kcal/mol|
 --------------------------------------------------------

-------------------
GIBBS FREE ENERGY
-------------------

The Gibbs free energy is G = H - T*S

Total enthalpy                    ...   -440.62350403 Eh
Total entropy correction          ...     -0.03589462 Eh    -22.52 kcal/mol
-----------------------------------------------------------------------
Final Gibbs free energy         ...   -440.65939865 Eh

For completeness - the Gibbs free energy minus the electronic energy
G-E(el)                           ...     -0.02967149 Eh    -18.62 kcal/mol

                             ****ORCA TERMINATED NORMALLY****
TOTAL RUN TIME: 0 days 0 hours 5 minutes 14 seconds 633 msec
