                         Program Version 4.2.0 -  RELEASE  -
|  1> #
|  2> # Ag03C1_LIN ri-DSD-BLYP/2013-D3BJ/Def2-TZVPPD
|  3> #
|  4> ! rijk ri-dsd-blyp/2013 d3bj def2-tzvppd def2/jk def2-tzvppd/c grid4 nofinalgrid opt xyzfile numfreq
|  5>
|  6> *xyz 1 1
|  7> Ag       0.000000    0.000000    0.000000
|  8> Ag       0.000000    0.000000    2.629319
|  9> Ag       0.000000    0.000000   -2.629319
| 10> *
| 11>
| 12> %maxcore 5000
| 13>
| 14> %pal
| 15> nprocs = 24
| 16> end
| 17>
| 18>
| 19>                          ****END OF INPUT****
 Total Charge           Charge          ....    1
 Multiplicity           Mult            ....    1
 Number of Electrons    NEL             ....   56
Dispersion correction            ... done
MP2 TOTAL ENERGY:     -440.371773349 Eh
Dispersion correction           -0.007897193
FINAL SINGLE POINT ENERGY      -440.379670541574
                    ***********************HURRAY********************

CARTESIAN COORDINATES (ANGSTROEM)
---------------------------------
  Ag     0.000000   -0.000000   -0.000000
  Ag    -0.000000    0.000000    2.629480
  Ag    -0.000000    0.000000   -2.629480

 Multiplicity           Mult            ....    1
 Number of Electrons    NEL             ....   56
 Basis Dimension        Dim             ....  168

ORBITAL ENERGIES
----------------

  NO   OCC          E(Eh)            E(eV)
   0   2.0000      -4.317922      -117.4966
   1   2.0000      -4.317921      -117.4966
   2   2.0000      -4.270557      -116.2078
   3   2.0000      -2.824597       -76.8612
   4   2.0000      -2.824258       -76.8520
   5   2.0000      -2.822266       -76.7978
   6   2.0000      -2.822266       -76.7978
   7   2.0000      -2.822249       -76.7973
   8   2.0000      -2.822249       -76.7973
   9   2.0000      -2.777058       -75.5676
  10   2.0000      -2.770489       -75.3888
  11   2.0000      -2.770489       -75.3888
  12   2.0000      -0.679415       -18.4878
  13   2.0000      -0.658619       -17.9219
  14   2.0000      -0.658619       -17.9219
  15   2.0000      -0.651324       -17.7234
  16   2.0000      -0.649407       -17.6713
  17   2.0000      -0.649407       -17.6713
  18   2.0000      -0.646583       -17.5944
  19   2.0000      -0.646583       -17.5944
  20   2.0000      -0.646260       -17.5856
  21   2.0000      -0.646259       -17.5856
  22   2.0000      -0.592528       -16.1235
  23   2.0000      -0.592527       -16.1235
  24   2.0000      -0.590151       -16.0588
  25   2.0000      -0.590151       -16.0588
  26   2.0000      -0.580892       -15.8069
  27   2.0000      -0.398206       -10.8357
  28   0.0000      -0.247173        -6.7259
  29   0.0000      -0.154976        -4.2171
  30   0.0000      -0.127267        -3.4631
  31   0.0000      -0.127267        -3.4631
  32   0.0000      -0.091803        -2.4981

Dispersion correction            ... done

MULLIKEN ATOMIC CHARGES
-----------------------
   0 Ag:   -0.058795
   1 Ag:    0.529398
   2 Ag:    0.529398
Sum of atomic charges:    1.0000000

LOEWDIN ATOMIC CHARGES
----------------------
   0 Ag:    0.120669
   1 Ag:    0.439665
   2 Ag:    0.439665

  Mayer bond orders larger than 0.100000
B(  0-Ag,  1-Ag) :   0.5162 B(  0-Ag,  2-Ag) :   0.5162 B(  1-Ag,  2-Ag) :   0.2005

MP2 TOTAL ENERGY:     -440.371774336 Eh
Dispersion correction           -0.007896092
FINAL SINGLE POINT ENERGY      -440.379670428144

DIPOLE MOMENT
-------------
                                X             Y             Z
Electronic contribution:     -0.00000      -0.00000      -0.00000
Nuclear contribution   :      0.00000       0.00000       0.00000
                        -----------------------------------------
Total Dipole Moment    :     -0.00000      -0.00000      -0.00000
                        -----------------------------------------
Magnitude (a.u.)       :      0.00000
Magnitude (Debye)      :      0.00000

VIBRATIONAL FREQUENCIES
-----------------------

Scaling factor for frequencies =  1.000000000 (already applied!)

   0:         0.00 cm**-1
   1:         0.00 cm**-1
   2:         0.00 cm**-1
   3:         0.00 cm**-1
   4:         0.00 cm**-1
   5:       -34.40 cm**-1 ***imaginary mode***
   6:       -34.40 cm**-1 ***imaginary mode***
   7:       106.36 cm**-1
   8:       181.12 cm**-1

IR SPECTRUM
-----------

 Mode    freq (cm**-1)   T**2         TX         TY         TZ
-------------------------------------------------------------------
   7:       106.36    0.000000  (  0.000001   0.000002   0.000019)
   8:       181.12   18.309423  ( -0.000002  -0.000005  -4.278951)

--------------------------
THERMOCHEMISTRY AT 298.15K
--------------------------

Temperature         ... 298.15 K
Pressure            ... 1.00 atm
Total Mass          ... 323.61 AMU
The molecule is recognized as being linear

Throughout the following assumptions are being made:
  (1) The electronic state is orbitally nondegenerate
  (2) There are no thermally accessible electronically excited states
  (3) Hindered rotations indicated by low frequency modes are not
      treated as such but are treated as vibrations and this may
      cause some error
  (4) All equations used are the standard statistical mechanics
      equations for an ideal gas
  (5) All vibrations are strictly harmonic

freq.     106.36  E(vib)   ...       0.45
freq.     181.12  E(vib)   ...       0.37

------------
INNER ENERGY
------------

The inner energy is: U= E(el) + E(ZPE) + E(vib) + E(rot) + E(trans)
    E(el)   - is the total energy from the electronic structure calculation
              = E(kin-el) + E(nuc-el) + E(el-el) + E(nuc-nuc)
    E(ZPE)  - the the zero temperature vibrational energy from the frequency calculation
    E(vib)  - the the finite temperature correction to E(ZPE) due to population
              of excited vibrational states
    E(rot)  - is the rotational thermal energy
    E(trans)- is the translational thermal energy

Summary of contributions to the inner energy U:
Electronic energy                ...   -440.37967031 Eh
Zero point energy                ...      0.00065495 Eh       0.41 kcal/mol
Thermal vibrational correction   ...      0.00131346 Eh       0.82 kcal/mol
Thermal rotational correction    ...      0.00094418 Eh       0.59 kcal/mol
Thermal translational correction ...      0.00141627 Eh       0.89 kcal/mol
-----------------------------------------------------------------------
Total thermal energy                   -440.37534144 Eh

Summary of corrections to the electronic energy:
(perhaps to be used in another calculation)
Total thermal correction                  0.00367392 Eh       2.31 kcal/mol
Non-thermal (ZPE) correction              0.00065495 Eh       0.41 kcal/mol
-----------------------------------------------------------------------
Total correction                          0.00432887 Eh       2.72 kcal/mol

--------
ENTHALPY
--------

The enthalpy is H = U + kB*T
                kB is Boltzmann's constant
Total free energy                 ...   -440.37534144 Eh
Thermal Enthalpy correction       ...      0.00094421 Eh       0.59 kcal/mol
-----------------------------------------------------------------------
Total Enthalpy                    ...   -440.37439723 Eh

Note: Rotational entropy computed according to Herzberg
Infrared and Raman Spectra, Chapter V,1, Van Nostrand Reinhold, 1945
Point Group:  Dinfh, Symmetry Number:   2
Rotational constants in cm-1:     0.000000     0.011301     0.011301

Vibrational entropy computed according to the QRRHO of S. Grimme
Chem.Eur.J. 2012 18 9955

-------
ENTROPY
-------

The entropy contributions are T*S = T*(S(el)+S(vib)+S(rot)+S(trans))
     S(el)   - electronic entropy
     S(vib)  - vibrational entropy
     S(rot)  - rotational entropy
     S(trans)- translational entropy
The entropies will be listed as mutliplied by the temperature to get
units of energy

Electronic entropy                ...      0.00000000 Eh      0.00 kcal/mol
Vibrational entropy               ...      0.00257030 Eh      1.61 kcal/mol
Rotational entropy                ...      0.00955842 Eh      6.00 kcal/mol
Translational entropy             ...      0.02053447 Eh     12.89 kcal/mol
-----------------------------------------------------------------------
Final entropy term                ...      0.03266319 Eh     20.50 kcal/mol

In case the symmetry of your molecule has not been determined correctly
or in case you have a reason to use a different symmetry number we print
out the resulting rotational entropy values for sn=1,12 :
 --------------------------------------------------------
|  sn= 1 | S(rot)=      -0.00427402 Eh     -2.68 kcal/mol|
|  sn= 2 | S(rot)=      -0.00492848 Eh     -3.09 kcal/mol|
|  sn= 3 | S(rot)=      -0.00531131 Eh     -3.33 kcal/mol|
|  sn= 4 | S(rot)=      -0.00558293 Eh     -3.50 kcal/mol|
|  sn= 5 | S(rot)=      -0.00579362 Eh     -3.64 kcal/mol|
|  sn= 6 | S(rot)=      -0.00596576 Eh     -3.74 kcal/mol|
|  sn= 7 | S(rot)=      -0.00611131 Eh     -3.83 kcal/mol|
|  sn= 8 | S(rot)=      -0.00623739 Eh     -3.91 kcal/mol|
|  sn= 9 | S(rot)=      -0.00634860 Eh     -3.98 kcal/mol|
|  sn=10 | S(rot)=      -0.00644808 Eh     -4.05 kcal/mol|
|  sn=11 | S(rot)=      -0.00653807 Eh     -4.10 kcal/mol|
|  sn=12 | S(rot)=      -0.00662022 Eh     -4.15 kcal/mol|
 --------------------------------------------------------

-------------------
GIBBS FREE ENERGY
-------------------

The Gibbs free energy is G = H - T*S

Total enthalpy                    ...   -440.37439723 Eh
Total entropy correction          ...     -0.03266319 Eh    -20.50 kcal/mol
-----------------------------------------------------------------------
Final Gibbs free energy         ...   -440.40706042 Eh

For completeness - the Gibbs free energy minus the electronic energy
G-E(el)                           ...     -0.02739011 Eh    -17.19 kcal/mol

                             ****ORCA TERMINATED NORMALLY****
TOTAL RUN TIME: 0 days 0 hours 3 minutes 30 seconds 820 msec
