                         Program Version 4.2.0 -  RELEASE  -
|  1> #
|  2> # Au01N0_F ri-DSD-BLYP/2013-D3BJ/Def2-TZVPPD
|  3> #
|  4> ! rijk ri-dsd-blyp/2013 d3bj def2-tzvppd def2/jk def2-tzvppd/c grid4 nofinalgrid opt xyzfile numfreq
|  5>
|  6> *xyz 0 1
|  7> Au       0.000000    0.000000    0.196853
|  8> F        0.000000    0.000000   -1.727931
|  9> *
| 10>
| 11> %maxcore 5000
| 12>
| 13> %pal
| 14> nprocs = 24
| 15> end
| 16>
| 17>
| 18>                          ****END OF INPUT****
 Total Charge           Charge          ....    0
 Multiplicity           Mult            ....    1
 Number of Electrons    NEL             ....   28
Dispersion correction            ... done
MP2 TOTAL ENERGY:     -235.298410705 Eh
Dispersion correction           -0.000907299
FINAL SINGLE POINT ENERGY      -235.299318003987
Dispersion correction            ... done
MP2 TOTAL ENERGY:     -235.298415155 Eh
Dispersion correction           -0.000903447
FINAL SINGLE POINT ENERGY      -235.299318602416
Dispersion correction            ... done
MP2 TOTAL ENERGY:     -235.298436632 Eh
Dispersion correction           -0.000905352
FINAL SINGLE POINT ENERGY      -235.299341983933
                    ***********************HURRAY********************

CARTESIAN COORDINATES (ANGSTROEM)
---------------------------------
  Au     0.000000    0.000000    0.200921
  F      0.000000    0.000000   -1.731999

 Multiplicity           Mult            ....    1
 Number of Electrons    NEL             ....   28
 Basis Dimension        Dim             ....   99

ORBITAL ENERGIES
----------------

  NO   OCC          E(Eh)            E(eV)
   0   2.0000     -25.625704      -697.3109
   1   2.0000      -4.546297      -123.7110
   2   2.0000      -2.640710       -71.8574
   3   2.0000      -2.630146       -71.5699
   4   2.0000      -2.630146       -71.5699
   5   2.0000      -1.317966       -35.8637
   6   2.0000      -0.542537       -14.7632
   7   2.0000      -0.515400       -14.0248
   8   2.0000      -0.515400       -14.0248
   9   2.0000      -0.443732       -12.0746
  10   2.0000      -0.443732       -12.0746
  11   2.0000      -0.412912       -11.2359
  12   2.0000      -0.412912       -11.2359
  13   2.0000      -0.376625       -10.2485
  14   0.0000      -0.072886        -1.9833
  15   0.0000       0.039053         1.0627
  16   0.0000       0.039053         1.0627
  17   0.0000       0.076467         2.0808
  18   0.0000       0.140850         3.8327

Dispersion correction            ... done

MULLIKEN ATOMIC CHARGES
-----------------------
   0 Au:    0.483061
   1 F :   -0.483061
Sum of atomic charges:    0.0000000

LOEWDIN ATOMIC CHARGES
----------------------
   0 Au:    0.617544
   1 F :   -0.617544

  Mayer bond orders larger than 0.100000
B(  0-Au,  1-F ) :   0.7890

MP2 TOTAL ENERGY:     -235.298436538 Eh
Dispersion correction           -0.000905396
FINAL SINGLE POINT ENERGY      -235.299341933961

DIPOLE MOMENT
-------------
                                X             Y             Z
Electronic contribution:     -0.00000      -0.00000      25.61976
Nuclear contribution   :      0.00000       0.00000     -23.87724
                        -----------------------------------------
Total Dipole Moment    :     -0.00000      -0.00000       1.74251
                        -----------------------------------------
Magnitude (a.u.)       :      1.74251
Magnitude (Debye)      :      4.42912

VIBRATIONAL FREQUENCIES
-----------------------

Scaling factor for frequencies =  1.000000000 (already applied!)

   0:         0.00 cm**-1
   1:         0.00 cm**-1
   2:         0.00 cm**-1
   3:         0.00 cm**-1
   4:         0.00 cm**-1
   5:       551.83 cm**-1

IR SPECTRUM
-----------

 Mode    freq (cm**-1)   T**2         TX         TY         TZ
-------------------------------------------------------------------
   5:       551.83   52.044797  (  0.000000  -0.000002   7.214208)

--------------------------
THERMOCHEMISTRY AT 298.15K
--------------------------

Temperature         ... 298.15 K
Pressure            ... 1.00 atm
Total Mass          ... 215.96 AMU
The molecule is recognized as being linear

Throughout the following assumptions are being made:
  (1) The electronic state is orbitally nondegenerate
  (2) There are no thermally accessible electronically excited states
  (3) Hindered rotations indicated by low frequency modes are not
      treated as such but are treated as vibrations and this may
      cause some error
  (4) All equations used are the standard statistical mechanics
      equations for an ideal gas
  (5) All vibrations are strictly harmonic

freq.     551.83  E(vib)   ...       0.12

------------
INNER ENERGY
------------

The inner energy is: U= E(el) + E(ZPE) + E(vib) + E(rot) + E(trans)
    E(el)   - is the total energy from the electronic structure calculation
              = E(kin-el) + E(nuc-el) + E(el-el) + E(nuc-nuc)
    E(ZPE)  - the the zero temperature vibrational energy from the frequency calculation
    E(vib)  - the the finite temperature correction to E(ZPE) due to population
              of excited vibrational states
    E(rot)  - is the rotational thermal energy
    E(trans)- is the translational thermal energy

Summary of contributions to the inner energy U:
Electronic energy                ...   -235.29934210 Eh
Zero point energy                ...      0.00125717 Eh       0.79 kcal/mol
Thermal vibrational correction   ...      0.00018851 Eh       0.12 kcal/mol
Thermal rotational correction    ...      0.00094418 Eh       0.59 kcal/mol
Thermal translational correction ...      0.00141627 Eh       0.89 kcal/mol
-----------------------------------------------------------------------
Total thermal energy                   -235.29553597 Eh

Summary of corrections to the electronic energy:
(perhaps to be used in another calculation)
Total thermal correction                  0.00254896 Eh       1.60 kcal/mol
Non-thermal (ZPE) correction              0.00125717 Eh       0.79 kcal/mol
-----------------------------------------------------------------------
Total correction                          0.00380613 Eh       2.39 kcal/mol

--------
ENTHALPY
--------

The enthalpy is H = U + kB*T
                kB is Boltzmann's constant
Total free energy                 ...   -235.29553597 Eh
Thermal Enthalpy correction       ...      0.00094421 Eh       0.59 kcal/mol
-----------------------------------------------------------------------
Total Enthalpy                    ...   -235.29459176 Eh

Note: Rotational entropy computed according to Herzberg
Infrared and Raman Spectra, Chapter V,1, Van Nostrand Reinhold, 1945
Point Group:  Cinfv, Symmetry Number:   1
Rotational constants in cm-1:     0.000000     0.260406     0.260406

Vibrational entropy computed according to the QRRHO of S. Grimme
Chem.Eur.J. 2012 18 9955

-------
ENTROPY
-------

The entropy contributions are T*S = T*(S(el)+S(vib)+S(rot)+S(trans))
     S(el)   - electronic entropy
     S(vib)  - vibrational entropy
     S(rot)  - rotational entropy
     S(trans)- translational entropy
The entropies will be listed as mutliplied by the temperature to get
units of energy

Electronic entropy                ...      0.00000000 Eh      0.00 kcal/mol
Vibrational entropy               ...      0.00025708 Eh      0.16 kcal/mol
Rotational entropy                ...      0.00725067 Eh      4.55 kcal/mol
Translational entropy             ...      0.01996169 Eh     12.53 kcal/mol
-----------------------------------------------------------------------
Final entropy term                ...      0.02746944 Eh     17.24 kcal/mol

In case the symmetry of your molecule has not been determined correctly
or in case you have a reason to use a different symmetry number we print
out the resulting rotational entropy values for sn=1,12 :
 --------------------------------------------------------
|  sn= 1 | S(rot)=             -inf Eh      -inf kcal/mol|
|  sn= 2 | S(rot)=             -inf Eh      -inf kcal/mol|
|  sn= 3 | S(rot)=             -inf Eh      -inf kcal/mol|
|  sn= 4 | S(rot)=             -inf Eh      -inf kcal/mol|
|  sn= 5 | S(rot)=             -inf Eh      -inf kcal/mol|
|  sn= 6 | S(rot)=             -inf Eh      -inf kcal/mol|
|  sn= 7 | S(rot)=             -inf Eh      -inf kcal/mol|
|  sn= 8 | S(rot)=             -inf Eh      -inf kcal/mol|
|  sn= 9 | S(rot)=             -inf Eh      -inf kcal/mol|
|  sn=10 | S(rot)=             -inf Eh      -inf kcal/mol|
|  sn=11 | S(rot)=             -inf Eh      -inf kcal/mol|
|  sn=12 | S(rot)=             -inf Eh      -inf kcal/mol|
 --------------------------------------------------------

-------------------
GIBBS FREE ENERGY
-------------------

The Gibbs free energy is G = H - T*S

Total enthalpy                    ...   -235.29459176 Eh
Total entropy correction          ...     -0.02746944 Eh    -17.24 kcal/mol
-----------------------------------------------------------------------
Final Gibbs free energy         ...   -235.32206120 Eh

For completeness - the Gibbs free energy minus the electronic energy
G-E(el)                           ...     -0.02271910 Eh    -14.26 kcal/mol

                             ****ORCA TERMINATED NORMALLY****
TOTAL RUN TIME: 0 days 0 hours 1 minutes 17 seconds 161 msec
