                         Program Version 4.2.0 -  RELEASE  -
|  1> #
|  2> # Au01N0_H ri-DSD-BLYP/2013-D3BJ/Def2-TZVPPD
|  3> #
|  4> ! rijk ri-dsd-blyp/2013 d3bj def2-tzvppd def2/jk def2-tzvppd/c grid4 nofinalgrid opt xyzfile numfreq
|  5>
|  6> *xyz 0 1
|  7> Au       0.000000    0.000000    0.019034
|  8> H        0.000000    0.000000   -1.503691
|  9> *
| 10>
| 11> %maxcore 5000
| 12>
| 13> %pal
| 14> nprocs = 24
| 15> end
| 16>
| 17>
| 18>                          ****END OF INPUT****
 Total Charge           Charge          ....    0
 Multiplicity           Mult            ....    1
 Number of Electrons    NEL             ....   20
Dispersion correction            ... done
MP2 TOTAL ENERGY:     -136.115071413 Eh
Dispersion correction           -0.000698080
FINAL SINGLE POINT ENERGY      -136.115769492273
Dispersion correction            ... done
MP2 TOTAL ENERGY:     -136.115071324 Eh
Dispersion correction           -0.000698453
FINAL SINGLE POINT ENERGY      -136.115769776293
Dispersion correction            ... done
MP2 TOTAL ENERGY:     -136.115076336 Eh
Dispersion correction           -0.000698265
FINAL SINGLE POINT ENERGY      -136.115774601498
                    ***********************HURRAY********************

CARTESIAN COORDINATES (ANGSTROEM)
---------------------------------
  Au     0.000000    0.000000    0.017185
  H      0.000000    0.000000   -1.501842

 Multiplicity           Mult            ....    1
 Number of Electrons    NEL             ....   20
 Basis Dimension        Dim             ....   76

ORBITAL ENERGIES
----------------

  NO   OCC          E(Eh)            E(eV)
   0   2.0000      -4.524686      -123.1230
   1   2.0000      -2.620058       -71.2954
   2   2.0000      -2.603606       -70.8477
   3   2.0000      -2.603606       -70.8477
   4   2.0000      -0.514906       -14.0113
   5   2.0000      -0.432335       -11.7644
   6   2.0000      -0.432335       -11.7644
   7   2.0000      -0.414420       -11.2769
   8   2.0000      -0.414420       -11.2769
   9   2.0000      -0.323636        -8.8066
  10   0.0000      -0.025000        -0.6803
  11   0.0000       0.038265         1.0412
  12   0.0000       0.038265         1.0412
  13   0.0000       0.115267         3.1366
  14   0.0000       0.151158         4.1132

Dispersion correction            ... done

MULLIKEN ATOMIC CHARGES
-----------------------
   0 Au:   -0.091448
   1 H :    0.091448
Sum of atomic charges:    0.0000000

LOEWDIN ATOMIC CHARGES
----------------------
   0 Au:    0.349938
   1 H :   -0.349938

  Mayer bond orders larger than 0.100000
B(  0-Au,  1-H ) :   1.0755

MP2 TOTAL ENERGY:     -136.115076245 Eh
Dispersion correction           -0.000698267
FINAL SINGLE POINT ENERGY      -136.115774511530

DIPOLE MOMENT
-------------
                                X             Y             Z
Electronic contribution:     -0.00000       0.00000       3.11035
Nuclear contribution   :      0.00000       0.00000      -2.57823
                        -----------------------------------------
Total Dipole Moment    :     -0.00000       0.00000       0.53212
                        -----------------------------------------
Magnitude (a.u.)       :      0.53212
Magnitude (Debye)      :      1.35254

VIBRATIONAL FREQUENCIES
-----------------------

Scaling factor for frequencies =  1.000000000 (already applied!)

   0:         0.00 cm**-1
   1:         0.00 cm**-1
   2:         0.00 cm**-1
   3:         0.00 cm**-1
   4:         0.00 cm**-1
   5:      2330.61 cm**-1

IR SPECTRUM
-----------

 Mode    freq (cm**-1)   T**2         TX         TY         TZ
-------------------------------------------------------------------
   5:      2330.61   18.319097  ( -0.000032  -0.000012   4.280081)

--------------------------
THERMOCHEMISTRY AT 298.15K
--------------------------

Temperature         ... 298.15 K
Pressure            ... 1.00 atm
Total Mass          ... 197.97 AMU
The molecule is recognized as being linear

Throughout the following assumptions are being made:
  (1) The electronic state is orbitally nondegenerate
  (2) There are no thermally accessible electronically excited states
  (3) Hindered rotations indicated by low frequency modes are not
      treated as such but are treated as vibrations and this may
      cause some error
  (4) All equations used are the standard statistical mechanics
      equations for an ideal gas
  (5) All vibrations are strictly harmonic

freq.    2330.61  E(vib)   ...       0.00

------------
INNER ENERGY
------------

The inner energy is: U= E(el) + E(ZPE) + E(vib) + E(rot) + E(trans)
    E(el)   - is the total energy from the electronic structure calculation
              = E(kin-el) + E(nuc-el) + E(el-el) + E(nuc-nuc)
    E(ZPE)  - the the zero temperature vibrational energy from the frequency calculation
    E(vib)  - the the finite temperature correction to E(ZPE) due to population
              of excited vibrational states
    E(rot)  - is the rotational thermal energy
    E(trans)- is the translational thermal energy

Summary of contributions to the inner energy U:
Electronic energy                ...   -136.11577455 Eh
Zero point energy                ...      0.00530953 Eh       3.33 kcal/mol
Thermal vibrational correction   ...      0.00000014 Eh       0.00 kcal/mol
Thermal rotational correction    ...      0.00094418 Eh       0.59 kcal/mol
Thermal translational correction ...      0.00141627 Eh       0.89 kcal/mol
-----------------------------------------------------------------------
Total thermal energy                   -136.10810443 Eh

Summary of corrections to the electronic energy:
(perhaps to be used in another calculation)
Total thermal correction                  0.00236059 Eh       1.48 kcal/mol
Non-thermal (ZPE) correction              0.00530953 Eh       3.33 kcal/mol
-----------------------------------------------------------------------
Total correction                          0.00767012 Eh       4.81 kcal/mol

--------
ENTHALPY
--------

The enthalpy is H = U + kB*T
                kB is Boltzmann's constant
Total free energy                 ...   -136.10810443 Eh
Thermal Enthalpy correction       ...      0.00094421 Eh       0.59 kcal/mol
-----------------------------------------------------------------------
Total Enthalpy                    ...   -136.10716023 Eh

Note: Rotational entropy computed according to Herzberg
Infrared and Raman Spectra, Chapter V,1, Van Nostrand Reinhold, 1945
Point Group:  Cinfv, Symmetry Number:   1
Rotational constants in cm-1:     0.000000     7.284871     7.284871

Vibrational entropy computed according to the QRRHO of S. Grimme
Chem.Eur.J. 2012 18 9955

-------
ENTROPY
-------

The entropy contributions are T*S = T*(S(el)+S(vib)+S(rot)+S(trans))
     S(el)   - electronic entropy
     S(vib)  - vibrational entropy
     S(rot)  - rotational entropy
     S(trans)- translational entropy
The entropies will be listed as mutliplied by the temperature to get
units of energy

Electronic entropy                ...      0.00000000 Eh      0.00 kcal/mol
Vibrational entropy               ...      0.00000015 Eh      0.00 kcal/mol
Rotational entropy                ...      0.00410531 Eh      2.58 kcal/mol
Translational entropy             ...      0.01983851 Eh     12.45 kcal/mol
-----------------------------------------------------------------------
Final entropy term                ...      0.02394397 Eh     15.03 kcal/mol

In case the symmetry of your molecule has not been determined correctly
or in case you have a reason to use a different symmetry number we print
out the resulting rotational entropy values for sn=1,12 :
 --------------------------------------------------------
|  sn= 1 | S(rot)=             -inf Eh      -inf kcal/mol|
|  sn= 2 | S(rot)=             -inf Eh      -inf kcal/mol|
|  sn= 3 | S(rot)=             -inf Eh      -inf kcal/mol|
|  sn= 4 | S(rot)=             -inf Eh      -inf kcal/mol|
|  sn= 5 | S(rot)=             -inf Eh      -inf kcal/mol|
|  sn= 6 | S(rot)=             -inf Eh      -inf kcal/mol|
|  sn= 7 | S(rot)=             -inf Eh      -inf kcal/mol|
|  sn= 8 | S(rot)=             -inf Eh      -inf kcal/mol|
|  sn= 9 | S(rot)=             -inf Eh      -inf kcal/mol|
|  sn=10 | S(rot)=             -inf Eh      -inf kcal/mol|
|  sn=11 | S(rot)=             -inf Eh      -inf kcal/mol|
|  sn=12 | S(rot)=             -inf Eh      -inf kcal/mol|
 --------------------------------------------------------

-------------------
GIBBS FREE ENERGY
-------------------

The Gibbs free energy is G = H - T*S

Total enthalpy                    ...   -136.10716023 Eh
Total entropy correction          ...     -0.02394397 Eh    -15.03 kcal/mol
-----------------------------------------------------------------------
Final Gibbs free energy         ...   -136.13110419 Eh

For completeness - the Gibbs free energy minus the electronic energy
G-E(el)                           ...     -0.01532964 Eh     -9.62 kcal/mol

                             ****ORCA TERMINATED NORMALLY****
TOTAL RUN TIME: 0 days 0 hours 0 minutes 48 seconds 621 msec
