                         Program Version 4.2.0 -  RELEASE  -
|  1> #
|  2> # Au02N0 ri-DSD-BLYP/2013-D3BJ/Def2-TZVPPD
|  3> #
|  4> ! rijk ri-dsd-blyp/2013 d3bj def2-tzvppd def2/jk def2-tzvppd/c grid4 nofinalgrid opt xyzfile numfreq
|  5>
|  6> *xyz 0 1
|  7> Au       0.000000    0.000000    1.239541
|  8> Au       0.000000    0.000000   -1.239541
|  9> *
| 10>
| 11> %maxcore 5000
| 12>
| 13> %pal
| 14> nprocs = 24
| 15> end
| 16>
| 17>
| 18>                          ****END OF INPUT****
 Total Charge           Charge          ....    0
 Multiplicity           Mult            ....    1
 Number of Electrons    NEL             ....   38
Dispersion correction            ... done
MP2 TOTAL ENERGY:     -271.086438233 Eh
Dispersion correction           -0.005120407
FINAL SINGLE POINT ENERGY      -271.091558639928
Dispersion correction            ... done
MP2 TOTAL ENERGY:     -271.086408981 Eh
Dispersion correction           -0.005011558
FINAL SINGLE POINT ENERGY      -271.091420538471
Dispersion correction            ... done
MP2 TOTAL ENERGY:     -271.086462183 Eh
Dispersion correction           -0.005101729
FINAL SINGLE POINT ENERGY      -271.091563912432
                    ***********************HURRAY********************

CARTESIAN COORDINATES (ANGSTROEM)
---------------------------------
  Au     0.000000    0.000000    1.241889
  Au     0.000000    0.000000   -1.241889

 Multiplicity           Mult            ....    1
 Number of Electrons    NEL             ....   38
 Basis Dimension        Dim             ....  118

ORBITAL ENERGIES
----------------

  NO   OCC          E(Eh)            E(eV)
   0   2.0000      -4.492597      -122.2498
   1   2.0000      -4.491678      -122.2248
   2   2.0000      -2.591799       -70.5264
   3   2.0000      -2.577065       -70.1255
   4   2.0000      -2.577065       -70.1255
   5   2.0000      -2.575949       -70.0951
   6   2.0000      -2.575721       -70.0889
   7   2.0000      -2.575721       -70.0889
   8   2.0000      -0.464482       -12.6392
   9   2.0000      -0.437560       -11.9066
  10   2.0000      -0.437560       -11.9066
  11   2.0000      -0.400231       -10.8908
  12   2.0000      -0.400227       -10.8907
  13   2.0000      -0.386190       -10.5088
  14   2.0000      -0.386186       -10.5087
  15   2.0000      -0.366132        -9.9630
  16   2.0000      -0.366132        -9.9630
  17   2.0000      -0.354428        -9.6445
  18   2.0000      -0.285095        -7.7578
  19   0.0000      -0.053093        -1.4447
  20   0.0000       0.026632         0.7247
  21   0.0000       0.026632         0.7247
  22   0.0000       0.048363         1.3160
  23   0.0000       0.090197         2.4544

Dispersion correction            ... done

MULLIKEN ATOMIC CHARGES
-----------------------
   0 Au:    0.000000
   1 Au:   -0.000000
Sum of atomic charges:    0.0000000

LOEWDIN ATOMIC CHARGES
----------------------
   0 Au:    0.000000
   1 Au:   -0.000000

  Mayer bond orders larger than 0.100000
B(  0-Au,  1-Au) :   1.0422

MP2 TOTAL ENERGY:     -271.086460564 Eh
Dispersion correction           -0.005103063
FINAL SINGLE POINT ENERGY      -271.091563626412

DIPOLE MOMENT
-------------
                                X             Y             Z
Electronic contribution:      0.00000      -0.00000      -0.00000
Nuclear contribution   :      0.00000       0.00000       0.00000
                        -----------------------------------------
Total Dipole Moment    :      0.00000      -0.00000      -0.00000
                        -----------------------------------------
Magnitude (a.u.)       :      0.00000
Magnitude (Debye)      :      0.00000

VIBRATIONAL FREQUENCIES
-----------------------

Scaling factor for frequencies =  1.000000000 (already applied!)

   0:         0.00 cm**-1
   1:         0.00 cm**-1
   2:         0.00 cm**-1
   3:         0.00 cm**-1
   4:         0.00 cm**-1
   5:       191.18 cm**-1

IR SPECTRUM
-----------

 Mode    freq (cm**-1)   T**2         TX         TY         TZ
-------------------------------------------------------------------
   5:       191.18    0.000000  (  0.000003  -0.000008   0.000028)

--------------------------
THERMOCHEMISTRY AT 298.15K
--------------------------

Temperature         ... 298.15 K
Pressure            ... 1.00 atm
Total Mass          ... 393.93 AMU
The molecule is recognized as being linear

Throughout the following assumptions are being made:
  (1) The electronic state is orbitally nondegenerate
  (2) There are no thermally accessible electronically excited states
  (3) Hindered rotations indicated by low frequency modes are not
      treated as such but are treated as vibrations and this may
      cause some error
  (4) All equations used are the standard statistical mechanics
      equations for an ideal gas
  (5) All vibrations are strictly harmonic

freq.     191.18  E(vib)   ...       0.36

------------
INNER ENERGY
------------

The inner energy is: U= E(el) + E(ZPE) + E(vib) + E(rot) + E(trans)
    E(el)   - is the total energy from the electronic structure calculation
              = E(kin-el) + E(nuc-el) + E(el-el) + E(nuc-nuc)
    E(ZPE)  - the the zero temperature vibrational energy from the frequency calculation
    E(vib)  - the the finite temperature correction to E(ZPE) due to population
              of excited vibrational states
    E(rot)  - is the rotational thermal energy
    E(trans)- is the translational thermal energy

Summary of contributions to the inner energy U:
Electronic energy                ...   -271.09156389 Eh
Zero point energy                ...      0.00043555 Eh       0.27 kcal/mol
Thermal vibrational correction   ...      0.00057470 Eh       0.36 kcal/mol
Thermal rotational correction    ...      0.00094418 Eh       0.59 kcal/mol
Thermal translational correction ...      0.00141627 Eh       0.89 kcal/mol
-----------------------------------------------------------------------
Total thermal energy                   -271.08819319 Eh

Summary of corrections to the electronic energy:
(perhaps to be used in another calculation)
Total thermal correction                  0.00293515 Eh       1.84 kcal/mol
Non-thermal (ZPE) correction              0.00043555 Eh       0.27 kcal/mol
-----------------------------------------------------------------------
Total correction                          0.00337070 Eh       2.12 kcal/mol

--------
ENTHALPY
--------

The enthalpy is H = U + kB*T
                kB is Boltzmann's constant
Total free energy                 ...   -271.08819319 Eh
Thermal Enthalpy correction       ...      0.00094421 Eh       0.59 kcal/mol
-----------------------------------------------------------------------
Total Enthalpy                    ...   -271.08724898 Eh

Note: Rotational entropy computed according to Herzberg
Infrared and Raman Spectra, Chapter V,1, Van Nostrand Reinhold, 1945
Point Group:  Dinfh, Symmetry Number:   2
Rotational constants in cm-1:     0.000000     0.027747     0.027747

Vibrational entropy computed according to the QRRHO of S. Grimme
Chem.Eur.J. 2012 18 9955

-------
ENTROPY
-------

The entropy contributions are T*S = T*(S(el)+S(vib)+S(rot)+S(trans))
     S(el)   - electronic entropy
     S(vib)  - vibrational entropy
     S(rot)  - rotational entropy
     S(trans)- translational entropy
The entropies will be listed as mutliplied by the temperature to get
units of energy

Electronic entropy                ...      0.00000000 Eh      0.00 kcal/mol
Vibrational entropy               ...      0.00105290 Eh      0.66 kcal/mol
Rotational entropy                ...      0.00871036 Eh      5.47 kcal/mol
Translational entropy             ...      0.02081297 Eh     13.06 kcal/mol
-----------------------------------------------------------------------
Final entropy term                ...      0.03057622 Eh     19.19 kcal/mol

In case the symmetry of your molecule has not been determined correctly
or in case you have a reason to use a different symmetry number we print
out the resulting rotational entropy values for sn=1,12 :
 --------------------------------------------------------
|  sn= 1 | S(rot)=             -inf Eh      -inf kcal/mol|
|  sn= 2 | S(rot)=             -inf Eh      -inf kcal/mol|
|  sn= 3 | S(rot)=             -inf Eh      -inf kcal/mol|
|  sn= 4 | S(rot)=             -inf Eh      -inf kcal/mol|
|  sn= 5 | S(rot)=             -inf Eh      -inf kcal/mol|
|  sn= 6 | S(rot)=             -inf Eh      -inf kcal/mol|
|  sn= 7 | S(rot)=             -inf Eh      -inf kcal/mol|
|  sn= 8 | S(rot)=             -inf Eh      -inf kcal/mol|
|  sn= 9 | S(rot)=             -inf Eh      -inf kcal/mol|
|  sn=10 | S(rot)=             -inf Eh      -inf kcal/mol|
|  sn=11 | S(rot)=             -inf Eh      -inf kcal/mol|
|  sn=12 | S(rot)=             -inf Eh      -inf kcal/mol|
 --------------------------------------------------------

-------------------
GIBBS FREE ENERGY
-------------------

The Gibbs free energy is G = H - T*S

Total enthalpy                    ...   -271.08724898 Eh
Total entropy correction          ...     -0.03057622 Eh    -19.19 kcal/mol
-----------------------------------------------------------------------
Final Gibbs free energy         ...   -271.11782520 Eh

For completeness - the Gibbs free energy minus the electronic energy
G-E(el)                           ...     -0.02626131 Eh    -16.48 kcal/mol

                             ****ORCA TERMINATED NORMALLY****
TOTAL RUN TIME: 0 days 0 hours 2 minutes 1 seconds 67 msec
