                         Program Version 4.2.0 -  RELEASE  -
|  1> #
|  2> # Au03C1_LIN ri-DSD-BLYP/2013-D3BJ/Def2-TZVPPD
|  3> #
|  4> ! rijk ri-dsd-blyp/2013 d3bj def2-tzvppd def2/jk def2-tzvppd/c grid4 nofinalgrid opt xyzfile numfreq
|  5>
|  6> *xyz 1 1
|  7> Au       0.000000    0.000000    0.000000
|  8> Au       0.000000    0.000000    2.576864
|  9> Au       0.000000    0.000000   -2.576864
| 10> *
| 11>
| 12> %maxcore 5000
| 13>
| 14> %pal
| 15> nprocs = 24
| 16> end
| 17>
| 18>
| 19>                          ****END OF INPUT****
 Total Charge           Charge          ....    1
 Multiplicity           Mult            ....    1
 Number of Electrons    NEL             ....   56
Dispersion correction            ... done
MP2 TOTAL ENERGY:     -406.311813192 Eh
Dispersion correction           -0.009699274
FINAL SINGLE POINT ENERGY      -406.321512465947
Dispersion correction            ... done
MP2 TOTAL ENERGY:     -406.311523525 Eh
Dispersion correction           -0.009885356
FINAL SINGLE POINT ENERGY      -406.321408880837
Dispersion correction            ... done
MP2 TOTAL ENERGY:     -406.311786947 Eh
Dispersion correction           -0.009731549
FINAL SINGLE POINT ENERGY      -406.321518495436
                    ***********************HURRAY********************

CARTESIAN COORDINATES (ANGSTROEM)
---------------------------------
  Au    -0.000000   -0.000000   -0.000000
  Au     0.000000    0.000000    2.572769
  Au     0.000000    0.000000   -2.572769

 Multiplicity           Mult            ....    1
 Number of Electrons    NEL             ....   56
 Basis Dimension        Dim             ....  177

ORBITAL ENERGIES
----------------

  NO   OCC          E(Eh)            E(eV)
   0   2.0000      -4.706823      -128.0792
   1   2.0000      -4.706821      -128.0791
   2   2.0000      -4.661172      -126.8369
   3   2.0000      -2.801085       -76.2214
   4   2.0000      -2.799748       -76.1850
   5   2.0000      -2.795395       -76.0666
   6   2.0000      -2.795395       -76.0666
   7   2.0000      -2.795354       -76.0654
   8   2.0000      -2.795354       -76.0654
   9   2.0000      -2.753924       -74.9381
  10   2.0000      -2.743402       -74.6518
  11   2.0000      -2.743402       -74.6518
  12   2.0000      -0.681092       -18.5334
  13   2.0000      -0.642105       -17.4726
  14   2.0000      -0.642105       -17.4726
  15   2.0000      -0.622270       -16.9328
  16   2.0000      -0.619945       -16.8695
  17   2.0000      -0.619945       -16.8695
  18   2.0000      -0.613309       -16.6890
  19   2.0000      -0.613304       -16.6889
  20   2.0000      -0.612300       -16.6615
  21   2.0000      -0.612296       -16.6614
  22   2.0000      -0.557066       -15.1585
  23   2.0000      -0.557061       -15.1584
  24   2.0000      -0.546747       -14.8778
  25   2.0000      -0.546747       -14.8778
  26   2.0000      -0.533645       -14.5212
  27   2.0000      -0.458384       -12.4733
  28   0.0000      -0.302232        -8.2242
  29   0.0000      -0.184494        -5.0203
  30   0.0000      -0.133807        -3.6411
  31   0.0000      -0.133807        -3.6411
  32   0.0000      -0.100008        -2.7214

Dispersion correction            ... done

MULLIKEN ATOMIC CHARGES
-----------------------
   0 Au:   -0.006951
   1 Au:    0.503476
   2 Au:    0.503476
Sum of atomic charges:    1.0000000

LOEWDIN ATOMIC CHARGES
----------------------
   0 Au:    0.128737
   1 Au:    0.435631
   2 Au:    0.435631

  Mayer bond orders larger than 0.100000
B(  0-Au,  1-Au) :   0.5727 B(  0-Au,  2-Au) :   0.5727 B(  1-Au,  2-Au) :   0.2807

MP2 TOTAL ENERGY:     -406.311785901 Eh
Dispersion correction           -0.009732689
FINAL SINGLE POINT ENERGY      -406.321518589863

DIPOLE MOMENT
-------------
                                X             Y             Z
Electronic contribution:      0.00000       0.00000       0.00000
Nuclear contribution   :      0.00000       0.00000       0.00000
                        -----------------------------------------
Total Dipole Moment    :      0.00000       0.00000       0.00000
                        -----------------------------------------
Magnitude (a.u.)       :      0.00000
Magnitude (Debye)      :      0.00000

VIBRATIONAL FREQUENCIES
-----------------------

Scaling factor for frequencies =  1.000000000 (already applied!)

   0:         0.00 cm**-1
   1:         0.00 cm**-1
   2:         0.00 cm**-1
   3:         0.00 cm**-1
   4:         0.00 cm**-1
   5:       -41.33 cm**-1 ***imaginary mode***
   6:       -41.32 cm**-1 ***imaginary mode***
   7:       108.27 cm**-1
   8:       179.51 cm**-1

IR SPECTRUM
-----------

 Mode    freq (cm**-1)   T**2         TX         TY         TZ
-------------------------------------------------------------------
   7:       108.27    0.000000  ( -0.000005  -0.000005  -0.000005)
   8:       179.51   15.778935  ( -0.000001  -0.000002   3.972271)

--------------------------
THERMOCHEMISTRY AT 298.15K
--------------------------

Temperature         ... 298.15 K
Pressure            ... 1.00 atm
Total Mass          ... 590.90 AMU
The molecule is recognized as being linear

Throughout the following assumptions are being made:
  (1) The electronic state is orbitally nondegenerate
  (2) There are no thermally accessible electronically excited states
  (3) Hindered rotations indicated by low frequency modes are not
      treated as such but are treated as vibrations and this may
      cause some error
  (4) All equations used are the standard statistical mechanics
      equations for an ideal gas
  (5) All vibrations are strictly harmonic

freq.     108.27  E(vib)   ...       0.45
freq.     179.51  E(vib)   ...       0.37

------------
INNER ENERGY
------------

The inner energy is: U= E(el) + E(ZPE) + E(vib) + E(rot) + E(trans)
    E(el)   - is the total energy from the electronic structure calculation
              = E(kin-el) + E(nuc-el) + E(el-el) + E(nuc-nuc)
    E(ZPE)  - the the zero temperature vibrational energy from the frequency calculation
    E(vib)  - the the finite temperature correction to E(ZPE) due to population
              of excited vibrational states
    E(rot)  - is the rotational thermal energy
    E(trans)- is the translational thermal energy

Summary of contributions to the inner energy U:
Electronic energy                ...   -406.32151847 Eh
Zero point energy                ...      0.00065561 Eh       0.41 kcal/mol
Thermal vibrational correction   ...      0.00131251 Eh       0.82 kcal/mol
Thermal rotational correction    ...      0.00094418 Eh       0.59 kcal/mol
Thermal translational correction ...      0.00141627 Eh       0.89 kcal/mol
-----------------------------------------------------------------------
Total thermal energy                   -406.31718991 Eh

Summary of corrections to the electronic energy:
(perhaps to be used in another calculation)
Total thermal correction                  0.00367296 Eh       2.30 kcal/mol
Non-thermal (ZPE) correction              0.00065561 Eh       0.41 kcal/mol
-----------------------------------------------------------------------
Total correction                          0.00432857 Eh       2.72 kcal/mol

--------
ENTHALPY
--------

The enthalpy is H = U + kB*T
                kB is Boltzmann's constant
Total free energy                 ...   -406.31718991 Eh
Thermal Enthalpy correction       ...      0.00094421 Eh       0.59 kcal/mol
-----------------------------------------------------------------------
Total Enthalpy                    ...   -406.31624570 Eh

Note: Rotational entropy computed according to Herzberg
Infrared and Raman Spectra, Chapter V,1, Van Nostrand Reinhold, 1945
Point Group:  Dinfh, Symmetry Number:   2
Rotational constants in cm-1:     0.000000     0.006465     0.006465

Vibrational entropy computed according to the QRRHO of S. Grimme
Chem.Eur.J. 2012 18 9955

-------
ENTROPY
-------

The entropy contributions are T*S = T*(S(el)+S(vib)+S(rot)+S(trans))
     S(el)   - electronic entropy
     S(vib)  - vibrational entropy
     S(rot)  - rotational entropy
     S(trans)- translational entropy
The entropies will be listed as mutliplied by the temperature to get
units of energy

Electronic entropy                ...      0.00000000 Eh      0.00 kcal/mol
Vibrational entropy               ...      0.00256930 Eh      1.61 kcal/mol
Rotational entropy                ...      0.01008575 Eh      6.33 kcal/mol
Translational entropy             ...      0.02138721 Eh     13.42 kcal/mol
-----------------------------------------------------------------------
Final entropy term                ...      0.03404226 Eh     21.36 kcal/mol

In case the symmetry of your molecule has not been determined correctly
or in case you have a reason to use a different symmetry number we print
out the resulting rotational entropy values for sn=1,12 :
 --------------------------------------------------------
|  sn= 1 | S(rot)=      -0.00135719 Eh     -0.85 kcal/mol|
|  sn= 2 | S(rot)=      -0.00201165 Eh     -1.26 kcal/mol|
|  sn= 3 | S(rot)=      -0.00239448 Eh     -1.50 kcal/mol|
|  sn= 4 | S(rot)=      -0.00266610 Eh     -1.67 kcal/mol|
|  sn= 5 | S(rot)=      -0.00287679 Eh     -1.81 kcal/mol|
|  sn= 6 | S(rot)=      -0.00304894 Eh     -1.91 kcal/mol|
|  sn= 7 | S(rot)=      -0.00319448 Eh     -2.00 kcal/mol|
|  sn= 8 | S(rot)=      -0.00332056 Eh     -2.08 kcal/mol|
|  sn= 9 | S(rot)=      -0.00343177 Eh     -2.15 kcal/mol|
|  sn=10 | S(rot)=      -0.00353125 Eh     -2.22 kcal/mol|
|  sn=11 | S(rot)=      -0.00362124 Eh     -2.27 kcal/mol|
|  sn=12 | S(rot)=      -0.00370339 Eh     -2.32 kcal/mol|
 --------------------------------------------------------

-------------------
GIBBS FREE ENERGY
-------------------

The Gibbs free energy is G = H - T*S

Total enthalpy                    ...   -406.31624570 Eh
Total entropy correction          ...     -0.03404226 Eh    -21.36 kcal/mol
-----------------------------------------------------------------------
Final Gibbs free energy         ...   -406.35028796 Eh

For completeness - the Gibbs free energy minus the electronic energy
G-E(el)                           ...     -0.02876949 Eh    -18.05 kcal/mol

                             ****ORCA TERMINATED NORMALLY****
TOTAL RUN TIME: 0 days 0 hours 5 minutes 26 seconds 160 msec
