                         Program Version 4.2.0 -  RELEASE  -
|  1> #
|  2> # Au03N0_D3H ri-DSD-BLYP/2013-D3BJ/Def2-TZVPPD
|  3> #
|  4> ! rijk ri-dsd-blyp/2013 d3bj def2-tzvppd def2/jk def2-tzvppd/c grid4 nofinalgrid opt xyzfile numfreq
|  5>
|  6> *xyz 0 2
|  7> Au       0.000000    1.515176   -0.000000
|  8> Au       1.312181   -0.757588    0.000000
|  9> Au      -1.312181   -0.757588   -0.000000
| 10> *
| 11>
| 12> %maxcore 5000
| 13>
| 14> %pal
| 15> nprocs = 24
| 16> end
| 17>
| 18>
| 19>                          ****END OF INPUT****
 Total Charge           Charge          ....    0
 Multiplicity           Mult            ....    2
 Number of Electrons    NEL             ....   57
Dispersion correction            ... done
MP2 TOTAL ENERGY:     -406.626677906 Eh
Dispersion correction           -0.013670341
FINAL SINGLE POINT ENERGY      -406.640348247431
Dispersion correction            ... done
MP2 TOTAL ENERGY:     -406.628136343 Eh
Dispersion correction           -0.013780951
FINAL SINGLE POINT ENERGY      -406.641917293519
FINAL SINGLE POINT ENERGY      -406.640856717477
FINAL SINGLE POINT ENERGY      -406.642246780865
FINAL SINGLE POINT ENERGY      -406.642261008528
Dispersion correction            ... done
MP2 TOTAL ENERGY:     -406.628686233 Eh
Dispersion correction           -0.013575817
FINAL SINGLE POINT ENERGY      -406.642262050575
                    ***********************HURRAY********************

CARTESIAN COORDINATES (ANGSTROEM)
---------------------------------
  Au    -0.000001    1.576326    0.000000
  Au     1.265956   -0.788164    0.000000
  Au    -1.265955   -0.788162    0.000000

 Multiplicity           Mult            ....    2
 Number of Electrons    NEL             ....   57
 Basis Dimension        Dim             ....  177

ORBITAL ENERGIES
----------------
                 SPIN UP ORBITALS
  NO   OCC          E(Eh)            E(eV)
   0   1.0000      -4.514525      -122.8465
   1   1.0000      -4.513807      -122.8269
   2   1.0000      -4.488297      -122.1328
   3   1.0000      -2.611611       -71.0656
   4   1.0000      -2.601301       -70.7850
   5   1.0000      -2.601006       -70.7770
   6   1.0000      -2.598485       -70.7084
   7   1.0000      -2.597378       -70.6782
   8   1.0000      -2.596976       -70.6673
   9   1.0000      -2.576106       -70.0994
  10   1.0000      -2.572539       -70.0023
  11   1.0000      -2.569654       -69.9238
  12   1.0000      -0.497966       -13.5503
  13   1.0000      -0.476320       -12.9613
  14   1.0000      -0.461607       -12.5610
  15   1.0000      -0.451960       -12.2985
  16   1.0000      -0.435829       -11.8595
  17   1.0000      -0.434017       -11.8102
  18   1.0000      -0.420484       -11.4420
  19   1.0000      -0.396024       -10.7763
  20   1.0000      -0.388729       -10.5778
  21   1.0000      -0.387811       -10.5529
  22   1.0000      -0.384753       -10.4697
  23   1.0000      -0.380156       -10.3446
  24   1.0000      -0.379933       -10.3385
  25   1.0000      -0.377537       -10.2733
  26   1.0000      -0.348194        -9.4749
  27   1.0000      -0.340306        -9.2602
  28   1.0000      -0.204864        -5.5746
  29   0.0000      -0.070147        -1.9088
  30   0.0000       0.005765         0.1569
  31   0.0000       0.022056         0.6002
  32   0.0000       0.043186         1.1752
  33   0.0000       0.046107         1.2546

                 SPIN DOWN ORBITALS
  NO   OCC          E(Eh)            E(eV)
   0   1.0000      -4.513850      -122.8281
   1   1.0000      -4.513146      -122.8090
   2   1.0000      -4.483943      -122.0143
   3   1.0000      -2.611840       -71.0718
   4   1.0000      -2.600046       -70.7508
   5   1.0000      -2.599653       -70.7401
   6   1.0000      -2.598459       -70.7077
   7   1.0000      -2.597756       -70.6885
   8   1.0000      -2.597377       -70.6782
   9   1.0000      -2.571453       -69.9728
  10   1.0000      -2.569972       -69.9325
  11   1.0000      -2.568228       -69.8850
  12   1.0000      -0.494738       -13.4625
  13   1.0000      -0.475144       -12.9293
  14   1.0000      -0.461104       -12.5473
  15   1.0000      -0.443996       -12.0817
  16   1.0000      -0.432275       -11.7628
  17   1.0000      -0.431162       -11.7325
  18   1.0000      -0.418211       -11.3801
  19   1.0000      -0.395607       -10.7650
  20   1.0000      -0.389845       -10.6082
  21   1.0000      -0.386507       -10.5174
  22   1.0000      -0.379733       -10.3331
  23   1.0000      -0.375951       -10.2302
  24   1.0000      -0.370194       -10.0735
  25   1.0000      -0.370159       -10.0725
  26   1.0000      -0.337934        -9.1957
  27   1.0000      -0.323571        -8.8048
  28   0.0000      -0.062214        -1.6929
  29   0.0000      -0.039988        -1.0881
  30   0.0000       0.011774         0.3204
  31   0.0000       0.036990         1.0065
  32   0.0000       0.059192         1.6107

Dispersion correction            ... done

MULLIKEN ATOMIC CHARGES AND SPIN DENSITIES
------------------------------------------
   0 Au:   -0.128636    0.663715
   1 Au:    0.064317    0.168145
   2 Au:    0.064319    0.168140
Sum of atomic charges       :    0.0000000

LOEWDIN ATOMIC CHARGES AND SPIN DENSITIES
-----------------------------------------
   0 Au:   -0.086012    0.545002
   1 Au:    0.043006    0.227500
   2 Au:    0.043006    0.227498

  Mayer bond orders larger than 0.100000
B(  0-Au,  1-Au) :   0.4703 B(  0-Au,  2-Au) :   0.4703 B(  1-Au,  2-Au) :   0.7920

MP2 TOTAL ENERGY:     -406.628687651 Eh
Dispersion correction           -0.013574388
FINAL SINGLE POINT ENERGY      -406.642262038864

DIPOLE MOMENT
-------------
                                X             Y             Z
Electronic contribution:     -0.00000      -0.54548      -0.00000
Nuclear contribution   :     -0.00000       0.00000       0.00000
                        -----------------------------------------
Total Dipole Moment    :     -0.00000      -0.54548      -0.00000
                        -----------------------------------------
Magnitude (a.u.)       :      0.54548
Magnitude (Debye)      :      1.38651

VIBRATIONAL FREQUENCIES
-----------------------

Scaling factor for frequencies =  1.000000000 (already applied!)

   0:         0.00 cm**-1
   1:         0.00 cm**-1
   2:         0.00 cm**-1
   3:         0.00 cm**-1
   4:         0.00 cm**-1
   5:         0.00 cm**-1
   6:       -19.90 cm**-1 ***imaginary mode***
   7:       116.92 cm**-1
   8:       184.41 cm**-1

IR SPECTRUM
-----------

 Mode    freq (cm**-1)   T**2         TX         TY         TZ
-------------------------------------------------------------------
   7:       116.92    0.094281  ( -0.000079  -0.307052  -0.000004)
   8:       184.41    0.075206  (  0.000023  -0.274237   0.000002)

--------------------------
THERMOCHEMISTRY AT 298.15K
--------------------------

Temperature         ... 298.15 K
Pressure            ... 1.00 atm
Total Mass          ... 590.90 AMU

Throughout the following assumptions are being made:
  (1) The electronic state is orbitally nondegenerate
      but the spin degeneracy is treated
  (2) There are no thermally accessible electronically excited states
  (3) Hindered rotations indicated by low frequency modes are not
      treated as such but are treated as vibrations and this may
      cause some error
  (4) All equations used are the standard statistical mechanics
      equations for an ideal gas
  (5) All vibrations are strictly harmonic

freq.     116.92  E(vib)   ...       0.44
freq.     184.41  E(vib)   ...       0.37

------------
INNER ENERGY
------------

The inner energy is: U= E(el) + E(ZPE) + E(vib) + E(rot) + E(trans)
    E(el)   - is the total energy from the electronic structure calculation
              = E(kin-el) + E(nuc-el) + E(el-el) + E(nuc-nuc)
    E(ZPE)  - the the zero temperature vibrational energy from the frequency calculation
    E(vib)  - the the finite temperature correction to E(ZPE) due to population
              of excited vibrational states
    E(rot)  - is the rotational thermal energy
    E(trans)- is the translational thermal energy

Summary of contributions to the inner energy U:
Electronic energy                ...   -406.64226243 Eh
Zero point energy                ...      0.00068648 Eh       0.43 kcal/mol
Thermal vibrational correction   ...      0.00128836 Eh       0.81 kcal/mol
Thermal rotational correction    ...      0.00141627 Eh       0.89 kcal/mol
Thermal translational correction ...      0.00141627 Eh       0.89 kcal/mol
-----------------------------------------------------------------------
Total thermal energy                   -406.63745505 Eh

Summary of corrections to the electronic energy:
(perhaps to be used in another calculation)
Total thermal correction                  0.00412090 Eh       2.59 kcal/mol
Non-thermal (ZPE) correction              0.00068648 Eh       0.43 kcal/mol
-----------------------------------------------------------------------
Total correction                          0.00480738 Eh       3.02 kcal/mol

--------
ENTHALPY
--------

The enthalpy is H = U + kB*T
                kB is Boltzmann's constant
Total free energy                 ...   -406.63745505 Eh
Thermal Enthalpy correction       ...      0.00094421 Eh       0.59 kcal/mol
-----------------------------------------------------------------------
Total Enthalpy                    ...   -406.63651084 Eh

Note: Rotational entropy computed according to Herzberg
Infrared and Raman Spectra, Chapter V,1, Van Nostrand Reinhold, 1945
Point Group:  Cs, Symmetry Number:   1
Rotational constants in cm-1:     0.026702     0.022963     0.012346

Vibrational entropy computed according to the QRRHO of S. Grimme
Chem.Eur.J. 2012 18 9955

-------
ENTROPY
-------

The entropy contributions are T*S = T*(S(el)+S(vib)+S(rot)+S(trans))
     S(el)   - electronic entropy
     S(vib)  - vibrational entropy
     S(rot)  - rotational entropy
     S(trans)- translational entropy
The entropies will be listed as mutliplied by the temperature to get
units of energy

Electronic entropy                ...      0.00065446 Eh      0.41 kcal/mol
Vibrational entropy               ...      0.00250585 Eh      1.57 kcal/mol
Rotational entropy                ...      0.01507740 Eh      9.46 kcal/mol
Translational entropy             ...      0.02138721 Eh     13.42 kcal/mol
-----------------------------------------------------------------------
Final entropy term                ...      0.03962492 Eh     24.86 kcal/mol

In case the symmetry of your molecule has not been determined correctly
or in case you have a reason to use a different symmetry number we print
out the resulting rotational entropy values for sn=1,12 :
 --------------------------------------------------------
|  sn= 1 | S(rot)=       0.01507740 Eh      9.46 kcal/mol|
|  sn= 2 | S(rot)=       0.01442295 Eh      9.05 kcal/mol|
|  sn= 3 | S(rot)=       0.01404011 Eh      8.81 kcal/mol|
|  sn= 4 | S(rot)=       0.01376849 Eh      8.64 kcal/mol|
|  sn= 5 | S(rot)=       0.01355780 Eh      8.51 kcal/mol|
|  sn= 6 | S(rot)=       0.01338566 Eh      8.40 kcal/mol|
|  sn= 7 | S(rot)=       0.01324011 Eh      8.31 kcal/mol|
|  sn= 8 | S(rot)=       0.01311403 Eh      8.23 kcal/mol|
|  sn= 9 | S(rot)=       0.01300282 Eh      8.16 kcal/mol|
|  sn=10 | S(rot)=       0.01290335 Eh      8.10 kcal/mol|
|  sn=11 | S(rot)=       0.01281336 Eh      8.04 kcal/mol|
|  sn=12 | S(rot)=       0.01273120 Eh      7.99 kcal/mol|
 --------------------------------------------------------

-------------------
GIBBS FREE ENERGY
-------------------

The Gibbs free energy is G = H - T*S

Total enthalpy                    ...   -406.63651084 Eh
Total entropy correction          ...     -0.03962492 Eh    -24.86 kcal/mol
-----------------------------------------------------------------------
Final Gibbs free energy         ...   -406.67613577 Eh

For completeness - the Gibbs free energy minus the electronic energy
G-E(el)                           ...     -0.03387334 Eh    -21.26 kcal/mol

                             ****ORCA TERMINATED NORMALLY****
TOTAL RUN TIME: 0 days 0 hours 11 minutes 0 seconds 688 msec
