                         Program Version 4.2.0 -  RELEASE  -
|  1> #
|  2> # Au03C1_D3H ri-DSD-BLYP/2013-D3BJ/Def2-TZVPPD
|  3> #
|  4> ! rijk ri-dsd-blyp/2013 d3bj def2-tzvppd def2/jk def2-tzvppd/c grid4 nofinalgrid opt xyzfile numfreq
|  5>
|  6> *xyz 1 1
|  7> Au       0.000000    1.501400   -0.000000
|  8> Au       1.300251   -0.750700   -0.000000
|  9> Au      -1.300251   -0.750700   -0.000000
| 10> *
| 11>
| 12> %maxcore 5000
| 13>
| 14> %pal
| 15> nprocs = 24
| 16> end
| 17>
| 18>
| 19>                          ****END OF INPUT****
 Total Charge           Charge          ....    1
 Multiplicity           Mult            ....    1
 Number of Electrons    NEL             ....   56
Dispersion correction            ... done
MP2 TOTAL ENERGY:     -406.379619295 Eh
Dispersion correction           -0.013949294
FINAL SINGLE POINT ENERGY      -406.393568589121
Dispersion correction            ... done
MP2 TOTAL ENERGY:     -406.379101004 Eh
Dispersion correction           -0.014251826
FINAL SINGLE POINT ENERGY      -406.393352830106
Dispersion correction            ... done
MP2 TOTAL ENERGY:     -406.379579229 Eh
Dispersion correction           -0.013998302
FINAL SINGLE POINT ENERGY      -406.393577531453
                    ***********************HURRAY********************

CARTESIAN COORDINATES (ANGSTROEM)
---------------------------------
  Au    -0.000000    1.498916    0.000000
  Au     1.298089   -0.749458    0.000000
  Au    -1.298089   -0.749458    0.000000

 Multiplicity           Mult            ....    1
 Number of Electrons    NEL             ....   56
 Basis Dimension        Dim             ....  177

ORBITAL ENERGIES
----------------

  NO   OCC          E(Eh)            E(eV)
   0   2.0000      -4.702784      -127.9693
   1   2.0000      -4.702034      -127.9488
   2   2.0000      -4.702034      -127.9488
   3   2.0000      -2.802011       -76.2466
   4   2.0000      -2.794438       -76.0405
   5   2.0000      -2.794437       -76.0405
   6   2.0000      -2.787356       -75.8478
   7   2.0000      -2.787019       -75.8386
   8   2.0000      -2.787013       -75.8385
   9   2.0000      -2.786576       -75.8266
  10   2.0000      -2.786109       -75.8139
  11   2.0000      -2.786108       -75.8138
  12   2.0000      -0.695341       -18.9212
  13   2.0000      -0.662759       -18.0346
  14   2.0000      -0.662758       -18.0346
  15   2.0000      -0.656575       -17.8663
  16   2.0000      -0.629782       -17.1372
  17   2.0000      -0.624039       -16.9810
  18   2.0000      -0.624036       -16.9809
  19   2.0000      -0.588928       -16.0255
  20   2.0000      -0.588927       -16.0255
  21   2.0000      -0.582442       -15.8491
  22   2.0000      -0.578469       -15.7409
  23   2.0000      -0.578468       -15.7409
  24   2.0000      -0.578390       -15.7388
  25   2.0000      -0.578387       -15.7387
  26   2.0000      -0.538888       -14.6639
  27   2.0000      -0.516946       -14.0668
  28   0.0000      -0.230707        -6.2779
  29   0.0000      -0.230706        -6.2778
  30   0.0000      -0.149301        -4.0627
  31   0.0000      -0.116224        -3.1626
  32   0.0000      -0.100010        -2.7214

Dispersion correction            ... done

MULLIKEN ATOMIC CHARGES
-----------------------
   0 Au:    0.333322
   1 Au:    0.333339
   2 Au:    0.333339
Sum of atomic charges:    1.0000000

LOEWDIN ATOMIC CHARGES
----------------------
   0 Au:    0.333329
   1 Au:    0.333335
   2 Au:    0.333335

  Mayer bond orders larger than 0.100000
B(  0-Au,  1-Au) :   0.5877 B(  0-Au,  2-Au) :   0.5877 B(  1-Au,  2-Au) :   0.5877

MP2 TOTAL ENERGY:     -406.379578046 Eh
Dispersion correction           -0.013999551
FINAL SINGLE POINT ENERGY      -406.393577597358

DIPOLE MOMENT
-------------
                                X             Y             Z
Electronic contribution:      0.00000      -0.00001       0.00000
Nuclear contribution   :      0.00000      -0.00000       0.00000
                        -----------------------------------------
Total Dipole Moment    :      0.00000      -0.00001       0.00000
                        -----------------------------------------
Magnitude (a.u.)       :      0.00001
Magnitude (Debye)      :      0.00002

VIBRATIONAL FREQUENCIES
-----------------------

Scaling factor for frequencies =  1.000000000 (already applied!)

   0:         0.00 cm**-1
   1:         0.00 cm**-1
   2:         0.00 cm**-1
   3:         0.00 cm**-1
   4:         0.00 cm**-1
   5:         0.00 cm**-1
   6:       120.78 cm**-1
   7:       122.20 cm**-1
   8:       187.14 cm**-1

IR SPECTRUM
-----------

 Mode    freq (cm**-1)   T**2         TX         TY         TZ
-------------------------------------------------------------------
   6:       120.78    0.624749  ( -0.000324   0.790410   0.000001)
   7:       122.20    0.650546  ( -0.806564  -0.000322   0.000001)
   8:       187.14    0.000000  ( -0.000001  -0.000687  -0.000003)

--------------------------
THERMOCHEMISTRY AT 298.15K
--------------------------

Temperature         ... 298.15 K
Pressure            ... 1.00 atm
Total Mass          ... 590.90 AMU

Throughout the following assumptions are being made:
  (1) The electronic state is orbitally nondegenerate
  (2) There are no thermally accessible electronically excited states
  (3) Hindered rotations indicated by low frequency modes are not
      treated as such but are treated as vibrations and this may
      cause some error
  (4) All equations used are the standard statistical mechanics
      equations for an ideal gas
  (5) All vibrations are strictly harmonic

freq.     120.78  E(vib)   ...       0.44
freq.     122.20  E(vib)   ...       0.43
freq.     187.14  E(vib)   ...       0.36

------------
INNER ENERGY
------------

The inner energy is: U= E(el) + E(ZPE) + E(vib) + E(rot) + E(trans)
    E(el)   - is the total energy from the electronic structure calculation
              = E(kin-el) + E(nuc-el) + E(el-el) + E(nuc-nuc)
    E(ZPE)  - the the zero temperature vibrational energy from the frequency calculation
    E(vib)  - the the finite temperature correction to E(ZPE) due to population
              of excited vibrational states
    E(rot)  - is the rotational thermal energy
    E(trans)- is the translational thermal energy

Summary of contributions to the inner energy U:
Electronic energy                ...   -406.39357730 Eh
Zero point energy                ...      0.00097988 Eh       0.61 kcal/mol
Thermal vibrational correction   ...      0.00196984 Eh       1.24 kcal/mol
Thermal rotational correction    ...      0.00141627 Eh       0.89 kcal/mol
Thermal translational correction ...      0.00141627 Eh       0.89 kcal/mol
-----------------------------------------------------------------------
Total thermal energy                   -406.38779503 Eh

Summary of corrections to the electronic energy:
(perhaps to be used in another calculation)
Total thermal correction                  0.00480238 Eh       3.01 kcal/mol
Non-thermal (ZPE) correction              0.00097988 Eh       0.61 kcal/mol
-----------------------------------------------------------------------
Total correction                          0.00578226 Eh       3.63 kcal/mol

--------
ENTHALPY
--------

The enthalpy is H = U + kB*T
                kB is Boltzmann's constant
Total free energy                 ...   -406.38779503 Eh
Thermal Enthalpy correction       ...      0.00094421 Eh       0.59 kcal/mol
-----------------------------------------------------------------------
Total Enthalpy                    ...   -406.38685082 Eh

Note: Rotational entropy computed according to Herzberg
Infrared and Raman Spectra, Chapter V,1, Van Nostrand Reinhold, 1945
Point Group:  C2v, Symmetry Number:   2
Rotational constants in cm-1:     0.025396     0.025396     0.012698

Vibrational entropy computed according to the QRRHO of S. Grimme
Chem.Eur.J. 2012 18 9955

-------
ENTROPY
-------

The entropy contributions are T*S = T*(S(el)+S(vib)+S(rot)+S(trans))
     S(el)   - electronic entropy
     S(vib)  - vibrational entropy
     S(rot)  - rotational entropy
     S(trans)- translational entropy
The entropies will be listed as mutliplied by the temperature to get
units of energy

Electronic entropy                ...      0.00000000 Eh      0.00 kcal/mol
Vibrational entropy               ...      0.00387060 Eh      2.43 kcal/mol
Rotational entropy                ...      0.01438579 Eh      9.03 kcal/mol
Translational entropy             ...      0.02138721 Eh     13.42 kcal/mol
-----------------------------------------------------------------------
Final entropy term                ...      0.03964360 Eh     24.88 kcal/mol

In case the symmetry of your molecule has not been determined correctly
or in case you have a reason to use a different symmetry number we print
out the resulting rotational entropy values for sn=1,12 :
 --------------------------------------------------------
|  sn= 1 | S(rot)=       0.01504025 Eh      9.44 kcal/mol|
|  sn= 2 | S(rot)=       0.01438579 Eh      9.03 kcal/mol|
|  sn= 3 | S(rot)=       0.01400296 Eh      8.79 kcal/mol|
|  sn= 4 | S(rot)=       0.01373133 Eh      8.62 kcal/mol|
|  sn= 5 | S(rot)=       0.01352065 Eh      8.48 kcal/mol|
|  sn= 6 | S(rot)=       0.01334850 Eh      8.38 kcal/mol|
|  sn= 7 | S(rot)=       0.01320295 Eh      8.28 kcal/mol|
|  sn= 8 | S(rot)=       0.01307688 Eh      8.21 kcal/mol|
|  sn= 9 | S(rot)=       0.01296567 Eh      8.14 kcal/mol|
|  sn=10 | S(rot)=       0.01286619 Eh      8.07 kcal/mol|
|  sn=11 | S(rot)=       0.01277620 Eh      8.02 kcal/mol|
|  sn=12 | S(rot)=       0.01269404 Eh      7.97 kcal/mol|
 --------------------------------------------------------

-------------------
GIBBS FREE ENERGY
-------------------

The Gibbs free energy is G = H - T*S

Total enthalpy                    ...   -406.38685082 Eh
Total entropy correction          ...     -0.03964360 Eh    -24.88 kcal/mol
-----------------------------------------------------------------------
Final Gibbs free energy         ...   -406.42649443 Eh

For completeness - the Gibbs free energy minus the electronic energy
G-E(el)                           ...     -0.03291713 Eh    -20.66 kcal/mol

                             ****ORCA TERMINATED NORMALLY****
TOTAL RUN TIME: 0 days 0 hours 6 minutes 21 seconds 428 msec
