                         Program Version 4.2.0 -  RELEASE  -
|  1> #
|  2> # Au03N0_LIN ri-DSD-BLYP/2013-D3BJ/Def2-TZVPPD
|  3> #
|  4> ! rijk ri-dsd-blyp/2013 d3bj def2-tzvppd def2/jk def2-tzvppd/c grid4 nofinalgrid opt xyzfile numfreq
|  5>
|  6> *xyz 0 2
|  7> Au       0.000000    0.000000    0.000000
|  8> Au       0.000000    0.000000    2.547414
|  9> Au       0.000000    0.000000   -2.547414
| 10> *
| 11>
| 12> %maxcore 5000
| 13>
| 14> %pal
| 15> nprocs = 24
| 16> end
| 17>
| 18>
| 19>                          ****END OF INPUT****
 Total Charge           Charge          ....    0
 Multiplicity           Mult            ....    2
 Number of Electrons    NEL             ....   57
Dispersion correction            ... done
MP2 TOTAL ENERGY:     -406.624989587 Eh
Dispersion correction           -0.009939126
FINAL SINGLE POINT ENERGY      -406.634928713138
Dispersion correction            ... done
MP2 TOTAL ENERGY:     -406.624599963 Eh
Dispersion correction           -0.010153048
FINAL SINGLE POINT ENERGY      -406.634753011208
Dispersion correction            ... done
MP2 TOTAL ENERGY:     -406.624963251 Eh
Dispersion correction           -0.009973627
FINAL SINGLE POINT ENERGY      -406.634936878309
                    ***********************HURRAY********************

CARTESIAN COORDINATES (ANGSTROEM)
---------------------------------
  Au     0.000000    0.000000   -0.000000
  Au    -0.000000   -0.000000    2.543018
  Au    -0.000000   -0.000000   -2.543018

 Multiplicity           Mult            ....    2
 Number of Electrons    NEL             ....   57
 Basis Dimension        Dim             ....  177

ORBITAL ENERGIES
----------------
                 SPIN UP ORBITALS
  NO   OCC          E(Eh)            E(eV)
   0   1.0000      -4.503653      -122.5506
   1   1.0000      -4.503642      -122.5503
   2   1.0000      -4.486071      -122.0722
   3   1.0000      -2.597286       -70.6757
   4   1.0000      -2.592939       -70.5575
   5   1.0000      -2.588096       -70.4257
   6   1.0000      -2.588096       -70.4257
   7   1.0000      -2.588075       -70.4251
   8   1.0000      -2.588075       -70.4251
   9   1.0000      -2.573850       -70.0380
  10   1.0000      -2.568769       -69.8998
  11   1.0000      -2.568769       -69.8998
  12   1.0000      -0.491776       -13.3819
  13   1.0000      -0.451493       -12.2858
  14   1.0000      -0.451493       -12.2858
  15   1.0000      -0.418072       -11.3763
  16   1.0000      -0.418072       -11.3763
  17   1.0000      -0.417365       -11.3571
  18   1.0000      -0.411921       -11.2089
  19   1.0000      -0.411917       -11.2088
  20   1.0000      -0.409213       -11.1352
  21   1.0000      -0.409209       -11.1351
  22   1.0000      -0.381651       -10.3853
  23   1.0000      -0.381646       -10.3851
  24   1.0000      -0.356604        -9.7037
  25   1.0000      -0.356604        -9.7037
  26   1.0000      -0.348279        -9.4771
  27   1.0000      -0.312905        -8.5146
  28   1.0000      -0.272310        -7.4099
  29   0.0000      -0.037134        -1.0105
  30   0.0000       0.012134         0.3302
  31   0.0000       0.012134         0.3302
  32   0.0000       0.036680         0.9981
  33   0.0000       0.049044         1.3345

                 SPIN DOWN ORBITALS
  NO   OCC          E(Eh)            E(eV)
   0   1.0000      -4.502163      -122.5101
   1   1.0000      -4.502148      -122.5097
   2   1.0000      -4.487641      -122.1149
   3   1.0000      -2.598770       -70.7161
   4   1.0000      -2.594715       -70.6058
   5   1.0000      -2.588743       -70.4433
   6   1.0000      -2.588743       -70.4433
   7   1.0000      -2.588686       -70.4417
   8   1.0000      -2.588686       -70.4417
   9   1.0000      -2.575657       -70.0872
  10   1.0000      -2.570373       -69.9434
  11   1.0000      -2.570373       -69.9434
  12   1.0000      -0.488096       -13.2818
  13   1.0000      -0.447525       -12.1778
  14   1.0000      -0.447525       -12.1778
  15   1.0000      -0.415752       -11.3132
  16   1.0000      -0.412550       -11.2260
  17   1.0000      -0.412550       -11.2260
  18   1.0000      -0.406489       -11.0611
  19   1.0000      -0.406485       -11.0610
  20   1.0000      -0.403036       -10.9672
  21   1.0000      -0.403032       -10.9671
  22   1.0000      -0.382329       -10.4037
  23   1.0000      -0.382323       -10.4035
  24   1.0000      -0.357096        -9.7171
  25   1.0000      -0.357096        -9.7171
  26   1.0000      -0.342384        -9.3167
  27   1.0000      -0.277074        -7.5396
  28   0.0000      -0.108465        -2.9515
  29   0.0000      -0.015463        -0.4208
  30   0.0000       0.020912         0.5690
  31   0.0000       0.020912         0.5690
  32   0.0000       0.049289         1.3412

Dispersion correction            ... done

MULLIKEN ATOMIC CHARGES AND SPIN DENSITIES
------------------------------------------
   0 Au:   -0.106263   -0.035781
   1 Au:    0.053132    0.517891
   2 Au:    0.053131    0.517891
Sum of atomic charges       :   -0.0000000

LOEWDIN ATOMIC CHARGES AND SPIN DENSITIES
-----------------------------------------
   0 Au:   -0.183793    0.281825
   1 Au:    0.091897    0.359087
   2 Au:    0.091896    0.359087

  Mayer bond orders larger than 0.100000
B(  0-Au,  1-Au) :   0.6373 B(  0-Au,  2-Au) :   0.6373 B(  1-Au,  2-Au) :   0.2025

MP2 TOTAL ENERGY:     -406.624961939 Eh
Dispersion correction           -0.009974831
FINAL SINGLE POINT ENERGY      -406.634936769818

DIPOLE MOMENT
-------------
                                X             Y             Z
Electronic contribution:     -0.00000       0.00000       0.00000
Nuclear contribution   :      0.00000       0.00000       0.00000
                        -----------------------------------------
Total Dipole Moment    :     -0.00000       0.00000       0.00000
                        -----------------------------------------
Magnitude (a.u.)       :      0.00000
Magnitude (Debye)      :      0.00000

VIBRATIONAL FREQUENCIES
-----------------------

Scaling factor for frequencies =  1.000000000 (already applied!)

   0:         0.00 cm**-1
   1:         0.00 cm**-1
   2:         0.00 cm**-1
   3:         0.00 cm**-1
   4:         0.00 cm**-1
   5:       -10.71 cm**-1 ***imaginary mode***
   6:       -10.66 cm**-1 ***imaginary mode***
   7:       118.61 cm**-1
   8:       178.44 cm**-1

IR SPECTRUM
-----------

 Mode    freq (cm**-1)   T**2         TX         TY         TZ
-------------------------------------------------------------------
   7:       118.61    0.000000  ( -0.000000  -0.000005  -0.000024)
   8:       178.44   10.029507  (  0.000001  -0.000003   3.166940)

--------------------------
THERMOCHEMISTRY AT 298.15K
--------------------------

Temperature         ... 298.15 K
Pressure            ... 1.00 atm
Total Mass          ... 590.90 AMU
The molecule is recognized as being linear

Throughout the following assumptions are being made:
  (1) The electronic state is orbitally nondegenerate
      but the spin degeneracy is treated
  (2) There are no thermally accessible electronically excited states
  (3) Hindered rotations indicated by low frequency modes are not
      treated as such but are treated as vibrations and this may
      cause some error
  (4) All equations used are the standard statistical mechanics
      equations for an ideal gas
  (5) All vibrations are strictly harmonic

freq.     118.61  E(vib)   ...       0.44
freq.     178.44  E(vib)   ...       0.37

------------
INNER ENERGY
------------

The inner energy is: U= E(el) + E(ZPE) + E(vib) + E(rot) + E(trans)
    E(el)   - is the total energy from the electronic structure calculation
              = E(kin-el) + E(nuc-el) + E(el-el) + E(nuc-nuc)
    E(ZPE)  - the the zero temperature vibrational energy from the frequency calculation
    E(vib)  - the the finite temperature correction to E(ZPE) due to population
              of excited vibrational states
    E(rot)  - is the rotational thermal energy
    E(trans)- is the translational thermal energy

Summary of contributions to the inner energy U:
Electronic energy                ...   -406.63493660 Eh
Zero point energy                ...      0.00067674 Eh       0.42 kcal/mol
Thermal vibrational correction   ...      0.00129495 Eh       0.81 kcal/mol
Thermal rotational correction    ...      0.00094418 Eh       0.59 kcal/mol
Thermal translational correction ...      0.00141627 Eh       0.89 kcal/mol
-----------------------------------------------------------------------
Total thermal energy                   -406.63060446 Eh

Summary of corrections to the electronic energy:
(perhaps to be used in another calculation)
Total thermal correction                  0.00365540 Eh       2.29 kcal/mol
Non-thermal (ZPE) correction              0.00067674 Eh       0.42 kcal/mol
-----------------------------------------------------------------------
Total correction                          0.00433214 Eh       2.72 kcal/mol

--------
ENTHALPY
--------

The enthalpy is H = U + kB*T
                kB is Boltzmann's constant
Total free energy                 ...   -406.63060446 Eh
Thermal Enthalpy correction       ...      0.00094421 Eh       0.59 kcal/mol
-----------------------------------------------------------------------
Total Enthalpy                    ...   -406.62966025 Eh

Note: Rotational entropy computed according to Herzberg
Infrared and Raman Spectra, Chapter V,1, Van Nostrand Reinhold, 1945
Point Group:  Dinfh, Symmetry Number:   2
Rotational constants in cm-1:     0.000000     0.006617     0.006617

Vibrational entropy computed according to the QRRHO of S. Grimme
Chem.Eur.J. 2012 18 9955

-------
ENTROPY
-------

The entropy contributions are T*S = T*(S(el)+S(vib)+S(rot)+S(trans))
     S(el)   - electronic entropy
     S(vib)  - vibrational entropy
     S(rot)  - rotational entropy
     S(trans)- translational entropy
The entropies will be listed as mutliplied by the temperature to get
units of energy

Electronic entropy                ...      0.00065446 Eh      0.41 kcal/mol
Vibrational entropy               ...      0.00252533 Eh      1.58 kcal/mol
Rotational entropy                ...      0.01006378 Eh      6.32 kcal/mol
Translational entropy             ...      0.02138721 Eh     13.42 kcal/mol
-----------------------------------------------------------------------
Final entropy term                ...      0.03463078 Eh     21.73 kcal/mol

In case the symmetry of your molecule has not been determined correctly
or in case you have a reason to use a different symmetry number we print
out the resulting rotational entropy values for sn=1,12 :
 --------------------------------------------------------
|  sn= 1 | S(rot)=      -0.00127788 Eh     -0.80 kcal/mol|
|  sn= 2 | S(rot)=      -0.00193234 Eh     -1.21 kcal/mol|
|  sn= 3 | S(rot)=      -0.00231517 Eh     -1.45 kcal/mol|
|  sn= 4 | S(rot)=      -0.00258680 Eh     -1.62 kcal/mol|
|  sn= 5 | S(rot)=      -0.00279749 Eh     -1.76 kcal/mol|
|  sn= 6 | S(rot)=      -0.00296963 Eh     -1.86 kcal/mol|
|  sn= 7 | S(rot)=      -0.00311518 Eh     -1.95 kcal/mol|
|  sn= 8 | S(rot)=      -0.00324125 Eh     -2.03 kcal/mol|
|  sn= 9 | S(rot)=      -0.00335246 Eh     -2.10 kcal/mol|
|  sn=10 | S(rot)=      -0.00345194 Eh     -2.17 kcal/mol|
|  sn=11 | S(rot)=      -0.00354193 Eh     -2.22 kcal/mol|
|  sn=12 | S(rot)=      -0.00362409 Eh     -2.27 kcal/mol|
 --------------------------------------------------------

-------------------
GIBBS FREE ENERGY
-------------------

The Gibbs free energy is G = H - T*S

Total enthalpy                    ...   -406.62966025 Eh
Total entropy correction          ...     -0.03463078 Eh    -21.73 kcal/mol
-----------------------------------------------------------------------
Final Gibbs free energy         ...   -406.66429103 Eh

For completeness - the Gibbs free energy minus the electronic energy
G-E(el)                           ...     -0.02935443 Eh    -18.42 kcal/mol

                             ****ORCA TERMINATED NORMALLY****
TOTAL RUN TIME: 0 days 0 hours 6 minutes 40 seconds 129 msec
