                         Program Version 4.2.0 -  RELEASE  -
|  1> #
|  2> # Cu01N0_H ri-DSD-BLYP/2013-D3BJ/Def2-TZVPPD
|  3> #
|  4> ! rijk ri-dsd-blyp/2013 d3bj def2-tzvppd def2/jk def2-tzvppd/c grid4 nofinalgrid opt xyzfile numfreq
|  5>
|  6> *xyz 0 1
|  7> Cu       0.000000    0.000000    0.048513
|  8> H        0.000000    0.000000   -1.406870
|  9> *
| 10>
| 11> %maxcore 5000
| 12>
| 13> %pal
| 14> nprocs = 24
| 15> end
| 16>
| 17>
| 18>                          ****END OF INPUT****
 Total Charge           Charge          ....    0
 Multiplicity           Mult            ....    1
 Number of Electrons    NEL             ....   30
Dispersion correction            ... done
MP2 TOTAL ENERGY:    -1640.745690423 Eh
Dispersion correction           -0.000511075
FINAL SINGLE POINT ENERGY     -1640.746201498589
Dispersion correction            ... done
MP2 TOTAL ENERGY:    -1640.745703551 Eh
Dispersion correction           -0.000511044
FINAL SINGLE POINT ENERGY     -1640.746214594763
FINAL SINGLE POINT ENERGY     -1640.746050216169
Dispersion correction            ... done
MP2 TOTAL ENERGY:    -1640.745518256 Eh
Dispersion correction           -0.000511055
FINAL SINGLE POINT ENERGY     -1640.746029310653
                    ***********************HURRAY********************

CARTESIAN COORDINATES (ANGSTROEM)
---------------------------------
  Cu     0.000000    0.000000    0.066050
  H      0.000000    0.000000   -1.424407

 Multiplicity           Mult            ....    1
 Number of Electrons    NEL             ....   30
 Basis Dimension        Dim             ....   84

ORBITAL ENERGIES
----------------

  NO   OCC          E(Eh)            E(eV)
   0   2.0000    -326.733148     -8890.8610
   1   2.0000     -40.109355     -1091.4310
   2   2.0000     -35.054002      -953.8679
   3   2.0000     -35.054002      -953.8679
   4   2.0000     -35.053667      -953.8588
   5   2.0000      -4.766304      -129.6977
   6   2.0000      -3.145916       -85.6047
   7   2.0000      -3.141034       -85.4719
   8   2.0000      -3.141034       -85.4719
   9   2.0000      -0.443886       -12.0787
  10   2.0000      -0.426902       -11.6166
  11   2.0000      -0.426902       -11.6166
  12   2.0000      -0.423443       -11.5225
  13   2.0000      -0.423443       -11.5225
  14   2.0000      -0.305943        -8.3251
  15   0.0000      -0.019860        -0.5404
  16   0.0000       0.034124         0.9285
  17   0.0000       0.034124         0.9285
  18   0.0000       0.099612         2.7106
  19   0.0000       0.119069         3.2400

Dispersion correction            ... done

MULLIKEN ATOMIC CHARGES
-----------------------
   0 Cu:   -0.183346
   1 H :    0.183346
Sum of atomic charges:   -0.0000000

LOEWDIN ATOMIC CHARGES
----------------------
   0 Cu:    0.249214
   1 H :   -0.249214

  Mayer bond orders larger than 0.100000
B(  0-Cu,  1-H ) :   0.9300

MP2 TOTAL ENERGY:    -1640.745516621 Eh
Dispersion correction           -0.000511056
FINAL SINGLE POINT ENERGY     -1640.746027676450

DIPOLE MOMENT
-------------
                                X             Y             Z
Electronic contribution:      0.00000      -0.00000       2.67647
Nuclear contribution   :      0.00000       0.00000      -1.49724
                        -----------------------------------------
Total Dipole Moment    :      0.00000      -0.00000       1.17923
                        -----------------------------------------
Magnitude (a.u.)       :      1.17923
Magnitude (Debye)      :      2.99737

VIBRATIONAL FREQUENCIES
-----------------------

Scaling factor for frequencies =  1.000000000 (already applied!)

   0:         0.00 cm**-1
   1:         0.00 cm**-1
   2:         0.00 cm**-1
   3:         0.00 cm**-1
   4:         0.00 cm**-1
   5:      1888.67 cm**-1

IR SPECTRUM
-----------

 Mode    freq (cm**-1)   T**2         TX         TY         TZ
-------------------------------------------------------------------
   5:      1888.67   87.147364  ( -0.000010  -0.000005   9.335275)

--------------------------
THERMOCHEMISTRY AT 298.15K
--------------------------

Temperature         ... 298.15 K
Pressure            ... 1.00 atm
Total Mass          ... 64.56 AMU
The molecule is recognized as being linear

Throughout the following assumptions are being made:
  (1) The electronic state is orbitally nondegenerate
  (2) There are no thermally accessible electronically excited states
  (3) Hindered rotations indicated by low frequency modes are not
      treated as such but are treated as vibrations and this may
      cause some error
  (4) All equations used are the standard statistical mechanics
      equations for an ideal gas
  (5) All vibrations are strictly harmonic

freq.    1888.67  E(vib)   ...       0.00

------------
INNER ENERGY
------------

The inner energy is: U= E(el) + E(ZPE) + E(vib) + E(rot) + E(trans)
    E(el)   - is the total energy from the electronic structure calculation
              = E(kin-el) + E(nuc-el) + E(el-el) + E(nuc-nuc)
    E(ZPE)  - the the zero temperature vibrational energy from the frequency calculation
    E(vib)  - the the finite temperature correction to E(ZPE) due to population
              of excited vibrational states
    E(rot)  - is the rotational thermal energy
    E(trans)- is the translational thermal energy

Summary of contributions to the inner energy U:
Electronic energy                ...  -1640.74602752 Eh
Zero point energy                ...      0.00430271 Eh       2.70 kcal/mol
Thermal vibrational correction   ...      0.00000095 Eh       0.00 kcal/mol
Thermal rotational correction    ...      0.00094418 Eh       0.59 kcal/mol
Thermal translational correction ...      0.00141627 Eh       0.89 kcal/mol
-----------------------------------------------------------------------
Total thermal energy                  -1640.73936341 Eh

Summary of corrections to the electronic energy:
(perhaps to be used in another calculation)
Total thermal correction                  0.00236140 Eh       1.48 kcal/mol
Non-thermal (ZPE) correction              0.00430271 Eh       2.70 kcal/mol
-----------------------------------------------------------------------
Total correction                          0.00666411 Eh       4.18 kcal/mol

--------
ENTHALPY
--------

The enthalpy is H = U + kB*T
                kB is Boltzmann's constant
Total free energy                 ...  -1640.73936341 Eh
Thermal Enthalpy correction       ...      0.00094421 Eh       0.59 kcal/mol
-----------------------------------------------------------------------
Total Enthalpy                    ...  -1640.73841920 Eh

Note: Rotational entropy computed according to Herzberg
Infrared and Raman Spectra, Chapter V,1, Van Nostrand Reinhold, 1945
Point Group:  Cinfv, Symmetry Number:   1
Rotational constants in cm-1:     0.000000     7.647712     7.647712

Vibrational entropy computed according to the QRRHO of S. Grimme
Chem.Eur.J. 2012 18 9955

-------
ENTROPY
-------

The entropy contributions are T*S = T*(S(el)+S(vib)+S(rot)+S(trans))
     S(el)   - electronic entropy
     S(vib)  - vibrational entropy
     S(rot)  - rotational entropy
     S(trans)- translational entropy
The entropies will be listed as mutliplied by the temperature to get
units of energy

Electronic entropy                ...      0.00000000 Eh      0.00 kcal/mol
Vibrational entropy               ...      0.00000105 Eh      0.00 kcal/mol
Rotational entropy                ...      0.00405941 Eh      2.55 kcal/mol
Translational entropy             ...      0.01825147 Eh     11.45 kcal/mol
-----------------------------------------------------------------------
Final entropy term                ...      0.02231194 Eh     14.00 kcal/mol

In case the symmetry of your molecule has not been determined correctly
or in case you have a reason to use a different symmetry number we print
out the resulting rotational entropy values for sn=1,12 :
 --------------------------------------------------------
|  sn= 1 | S(rot)=             -inf Eh      -inf kcal/mol|
|  sn= 2 | S(rot)=             -inf Eh      -inf kcal/mol|
|  sn= 3 | S(rot)=             -inf Eh      -inf kcal/mol|
|  sn= 4 | S(rot)=             -inf Eh      -inf kcal/mol|
|  sn= 5 | S(rot)=             -inf Eh      -inf kcal/mol|
|  sn= 6 | S(rot)=             -inf Eh      -inf kcal/mol|
|  sn= 7 | S(rot)=             -inf Eh      -inf kcal/mol|
|  sn= 8 | S(rot)=             -inf Eh      -inf kcal/mol|
|  sn= 9 | S(rot)=             -inf Eh      -inf kcal/mol|
|  sn=10 | S(rot)=             -inf Eh      -inf kcal/mol|
|  sn=11 | S(rot)=             -inf Eh      -inf kcal/mol|
|  sn=12 | S(rot)=             -inf Eh      -inf kcal/mol|
 --------------------------------------------------------

-------------------
GIBBS FREE ENERGY
-------------------

The Gibbs free energy is G = H - T*S

Total enthalpy                    ...  -1640.73841920 Eh
Total entropy correction          ...     -0.02231194 Eh    -14.00 kcal/mol
-----------------------------------------------------------------------
Final Gibbs free energy         ...  -1640.76073114 Eh

For completeness - the Gibbs free energy minus the electronic energy
G-E(el)                           ...     -0.01470362 Eh     -9.23 kcal/mol

                             ****ORCA TERMINATED NORMALLY****
TOTAL RUN TIME: 0 days 0 hours 1 minutes 56 seconds 433 msec
