                         Program Version 4.2.0 -  RELEASE  -
|  1> #
|  2> # Cu01N0_F ri-DSD-BLYP/2013-D3BJ/Def2-TZVPPD
|  3> #
|  4> ! rijk ri-dsd-blyp/2013 d3bj def2-tzvppd def2/jk def2-tzvppd/c grid4 nofinalgrid opt xyzfile numfreq
|  5>
|  6> *xyz 0 1
|  7> Cu       0.000000    0.000000    0.412716
|  8> F        0.000000    0.000000   -1.329863
|  9> *
| 10>
| 11> %maxcore 5000
| 12>
| 13> %pal
| 14> nprocs = 24
| 15> end
| 16>
| 17>
| 18>                          ****END OF INPUT****
 Total Charge           Charge          ....    0
 Multiplicity           Mult            ....    1
 Number of Electrons    NEL             ....   38
Dispersion correction            ... done
MP2 TOTAL ENERGY:    -1739.992645614 Eh
Dispersion correction           -0.000646110
FINAL SINGLE POINT ENERGY     -1739.993291723809
Dispersion correction            ... done
MP2 TOTAL ENERGY:    -1739.992694228 Eh
Dispersion correction           -0.000645686
FINAL SINGLE POINT ENERGY     -1739.993339913193
FINAL SINGLE POINT ENERGY     -1739.993373913691
Dispersion correction            ... done
MP2 TOTAL ENERGY:    -1739.992716687 Eh
Dispersion correction           -0.000643039
FINAL SINGLE POINT ENERGY     -1739.993359725957
                    ***********************HURRAY********************

CARTESIAN COORDINATES (ANGSTROEM)
---------------------------------
  Cu     0.000000    0.000000    0.427574
  F      0.000000    0.000000   -1.344721

 Multiplicity           Mult            ....    1
 Number of Electrons    NEL             ....   38
 Basis Dimension        Dim             ....  107

ORBITAL ENERGIES
----------------

  NO   OCC          E(Eh)            E(eV)
   0   2.0000    -326.748964     -8891.2913
   1   2.0000     -40.121998     -1091.7751
   2   2.0000     -35.068474      -954.2617
   3   2.0000     -35.068474      -954.2617
   4   2.0000     -35.064883      -954.1640
   5   2.0000     -25.575945      -695.9568
   6   2.0000      -4.784418      -130.1906
   7   2.0000      -3.163539       -86.0843
   8   2.0000      -3.162551       -86.0574
   9   2.0000      -3.162551       -86.0574
  10   2.0000      -1.273407       -34.6512
  11   2.0000      -0.500105       -13.6085
  12   2.0000      -0.478849       -13.0301
  13   2.0000      -0.478849       -13.0301
  14   2.0000      -0.446887       -12.1604
  15   2.0000      -0.446887       -12.1604
  16   2.0000      -0.400482       -10.8977
  17   2.0000      -0.400482       -10.8977
  18   2.0000      -0.377864       -10.2822
  19   0.0000      -0.049277        -1.3409
  20   0.0000       0.034829         0.9478
  21   0.0000       0.034829         0.9478
  22   0.0000       0.068742         1.8706
  23   0.0000       0.117354         3.1934

Dispersion correction            ... done

MULLIKEN ATOMIC CHARGES
-----------------------
   0 Cu:    0.699789
   1 F :   -0.699789
Sum of atomic charges:   -0.0000000

LOEWDIN ATOMIC CHARGES
----------------------
   0 Cu:    0.567107
   1 F :   -0.567107

  Mayer bond orders larger than 0.100000
B(  0-Cu,  1-F ) :   0.6066

MP2 TOTAL ENERGY:    -1739.992715603 Eh
Dispersion correction           -0.000643023
FINAL SINGLE POINT ENERGY     -1739.993358625932

DIPOLE MOMENT
-------------
                                X             Y             Z
Electronic contribution:      0.00000       0.00000       3.01242
Nuclear contribution   :      0.00000       0.00000      -0.85234
                        -----------------------------------------
Total Dipole Moment    :      0.00000       0.00000       2.16008
                        -----------------------------------------
Magnitude (a.u.)       :      2.16008
Magnitude (Debye)      :      5.49049

VIBRATIONAL FREQUENCIES
-----------------------

Scaling factor for frequencies =  1.000000000 (already applied!)

   0:         0.00 cm**-1
   1:         0.00 cm**-1
   2:         0.00 cm**-1
   3:         0.00 cm**-1
   4:         0.00 cm**-1
   5:       579.30 cm**-1

IR SPECTRUM
-----------

 Mode    freq (cm**-1)   T**2         TX         TY         TZ
-------------------------------------------------------------------
   5:       579.30   59.683225  ( -0.000003   0.000000   7.725492)

--------------------------
THERMOCHEMISTRY AT 298.15K
--------------------------

Temperature         ... 298.15 K
Pressure            ... 1.00 atm
Total Mass          ... 82.55 AMU
The molecule is recognized as being linear

Throughout the following assumptions are being made:
  (1) The electronic state is orbitally nondegenerate
  (2) There are no thermally accessible electronically excited states
  (3) Hindered rotations indicated by low frequency modes are not
      treated as such but are treated as vibrations and this may
      cause some error
  (4) All equations used are the standard statistical mechanics
      equations for an ideal gas
  (5) All vibrations are strictly harmonic

freq.     579.30  E(vib)   ...       0.11

------------
INNER ENERGY
------------

The inner energy is: U= E(el) + E(ZPE) + E(vib) + E(rot) + E(trans)
    E(el)   - is the total energy from the electronic structure calculation
              = E(kin-el) + E(nuc-el) + E(el-el) + E(nuc-nuc)
    E(ZPE)  - the the zero temperature vibrational energy from the frequency calculation
    E(vib)  - the the finite temperature correction to E(ZPE) due to population
              of excited vibrational states
    E(rot)  - is the rotational thermal energy
    E(trans)- is the translational thermal energy

Summary of contributions to the inner energy U:
Electronic energy                ...  -1739.99335855 Eh
Zero point energy                ...      0.00131974 Eh       0.83 kcal/mol
Thermal vibrational correction   ...      0.00017173 Eh       0.11 kcal/mol
Thermal rotational correction    ...      0.00094418 Eh       0.59 kcal/mol
Thermal translational correction ...      0.00141627 Eh       0.89 kcal/mol
-----------------------------------------------------------------------
Total thermal energy                  -1739.98950662 Eh

Summary of corrections to the electronic energy:
(perhaps to be used in another calculation)
Total thermal correction                  0.00253218 Eh       1.59 kcal/mol
Non-thermal (ZPE) correction              0.00131974 Eh       0.83 kcal/mol
-----------------------------------------------------------------------
Total correction                          0.00385192 Eh       2.42 kcal/mol

--------
ENTHALPY
--------

The enthalpy is H = U + kB*T
                kB is Boltzmann's constant
Total free energy                 ...  -1739.98950662 Eh
Thermal Enthalpy correction       ...      0.00094421 Eh       0.59 kcal/mol
-----------------------------------------------------------------------
Total Enthalpy                    ...  -1739.98856241 Eh

Note: Rotational entropy computed according to Herzberg
Infrared and Raman Spectra, Chapter V,1, Van Nostrand Reinhold, 1945
Point Group:  Cinfv, Symmetry Number:   1
Rotational constants in cm-1:     0.000000     0.366951     0.366951

Vibrational entropy computed according to the QRRHO of S. Grimme
Chem.Eur.J. 2012 18 9955

-------
ENTROPY
-------

The entropy contributions are T*S = T*(S(el)+S(vib)+S(rot)+S(trans))
     S(el)   - electronic entropy
     S(vib)  - vibrational entropy
     S(rot)  - rotational entropy
     S(trans)- translational entropy
The entropies will be listed as mutliplied by the temperature to get
units of energy

Electronic entropy                ...      0.00000000 Eh      0.00 kcal/mol
Vibrational entropy               ...      0.00023150 Eh      0.15 kcal/mol
Rotational entropy                ...      0.00692683 Eh      4.35 kcal/mol
Translational entropy             ...      0.01859962 Eh     11.67 kcal/mol
-----------------------------------------------------------------------
Final entropy term                ...      0.02575795 Eh     16.16 kcal/mol

In case the symmetry of your molecule has not been determined correctly
or in case you have a reason to use a different symmetry number we print
out the resulting rotational entropy values for sn=1,12 :
 --------------------------------------------------------
|  sn= 1 | S(rot)=             -inf Eh      -inf kcal/mol|
|  sn= 2 | S(rot)=             -inf Eh      -inf kcal/mol|
|  sn= 3 | S(rot)=             -inf Eh      -inf kcal/mol|
|  sn= 4 | S(rot)=             -inf Eh      -inf kcal/mol|
|  sn= 5 | S(rot)=             -inf Eh      -inf kcal/mol|
|  sn= 6 | S(rot)=             -inf Eh      -inf kcal/mol|
|  sn= 7 | S(rot)=             -inf Eh      -inf kcal/mol|
|  sn= 8 | S(rot)=             -inf Eh      -inf kcal/mol|
|  sn= 9 | S(rot)=             -inf Eh      -inf kcal/mol|
|  sn=10 | S(rot)=             -inf Eh      -inf kcal/mol|
|  sn=11 | S(rot)=             -inf Eh      -inf kcal/mol|
|  sn=12 | S(rot)=             -inf Eh      -inf kcal/mol|
 --------------------------------------------------------

-------------------
GIBBS FREE ENERGY
-------------------

The Gibbs free energy is G = H - T*S

Total enthalpy                    ...  -1739.98856241 Eh
Total entropy correction          ...     -0.02575795 Eh    -16.16 kcal/mol
-----------------------------------------------------------------------
Final Gibbs free energy         ...  -1740.01432036 Eh

For completeness - the Gibbs free energy minus the electronic energy
G-E(el)                           ...     -0.02096181 Eh    -13.15 kcal/mol

                             ****ORCA TERMINATED NORMALLY****
TOTAL RUN TIME: 0 days 0 hours 1 minutes 45 seconds 157 msec
