                         Program Version 4.2.0 -  RELEASE  -
|  1> #
|  2> # Cu02N0 ri-DSD-BLYP/2013-D3BJ/Def2-TZVPPD
|  3> #
|  4> ! rijk ri-dsd-blyp/2013 d3bj def2-tzvppd def2/jk def2-tzvppd/c grid4 nofinalgrid opt xyzfile numfreq
|  5>
|  6> *xyz 0 1
|  7> Cu       0.000000    0.000000    1.107490
|  8> Cu       0.000000    0.000000   -1.107490
|  9> *
| 10>
| 11> %maxcore 5000
| 12>
| 13> %pal
| 14> nprocs = 24
| 15> end
| 16>
| 17>
| 18>                          ****END OF INPUT****
 Total Charge           Charge          ....    0
 Multiplicity           Mult            ....    1
 Number of Electrons    NEL             ....   58
Dispersion correction            ... done
MP2 TOTAL ENERGY:    -3280.361766049 Eh
Dispersion correction           -0.003360608
FINAL SINGLE POINT ENERGY     -3280.365126657103
Dispersion correction            ... done
MP2 TOTAL ENERGY:    -3280.361801146 Eh
Dispersion correction           -0.003357383
FINAL SINGLE POINT ENERGY     -3280.365158529585
FINAL SINGLE POINT ENERGY     -3280.365426327818
FINAL SINGLE POINT ENERGY     -3280.365353997673
Dispersion correction            ... done
MP2 TOTAL ENERGY:    -3280.362107765 Eh
Dispersion correction           -0.003233446
FINAL SINGLE POINT ENERGY     -3280.365341210860
                    ***********************HURRAY********************

CARTESIAN COORDINATES (ANGSTROEM)
---------------------------------
  Cu     0.000000    0.000000    1.148493
  Cu     0.000000    0.000000   -1.148493

 Multiplicity           Mult            ....    1
 Number of Electrons    NEL             ....   58
 Basis Dimension        Dim             ....  134

ORBITAL ENERGIES
----------------

  NO   OCC          E(Eh)            E(eV)
   0   2.0000    -326.703485     -8890.0538
   1   2.0000    -326.703478     -8890.0536
   2   2.0000     -40.076976     -1090.5500
   3   2.0000     -40.076954     -1090.5493
   4   2.0000     -35.021873      -952.9936
   5   2.0000     -35.021873      -952.9936
   6   2.0000     -35.021867      -952.9935
   7   2.0000     -35.021867      -952.9935
   8   2.0000     -35.021830      -952.9924
   9   2.0000     -35.021819      -952.9922
  10   2.0000      -4.735778      -128.8671
  11   2.0000      -4.735277      -128.8534
  12   2.0000      -3.116674       -84.8090
  13   2.0000      -3.112068       -84.6837
  14   2.0000      -3.112068       -84.6837
  15   2.0000      -3.111944       -84.6803
  16   2.0000      -3.111696       -84.6735
  17   2.0000      -3.111696       -84.6735
  18   2.0000      -0.422066       -11.4850
  19   2.0000      -0.411959       -11.2100
  20   2.0000      -0.411959       -11.2100
  21   2.0000      -0.397836       -10.8257
  22   2.0000      -0.397833       -10.8256
  23   2.0000      -0.391524       -10.6539
  24   2.0000      -0.391520       -10.6538
  25   2.0000      -0.380071       -10.3423
  26   2.0000      -0.380071       -10.3423
  27   2.0000      -0.372938       -10.1482
  28   2.0000      -0.228667        -6.2223
  29   0.0000      -0.021992        -0.5984
  30   0.0000       0.022563         0.6140
  31   0.0000       0.022563         0.6140
  32   0.0000       0.044353         1.2069
  33   0.0000       0.074157         2.0179

Dispersion correction            ... done

MULLIKEN ATOMIC CHARGES
-----------------------
   0 Cu:    0.000000
   1 Cu:   -0.000000
Sum of atomic charges:    0.0000000

LOEWDIN ATOMIC CHARGES
----------------------
   0 Cu:   -0.000000
   1 Cu:    0.000000

  Mayer bond orders larger than 0.100000
B(  0-Cu,  1-Cu) :   0.9878

MP2 TOTAL ENERGY:    -3280.362107542 Eh
Dispersion correction           -0.003233399
FINAL SINGLE POINT ENERGY     -3280.365340941556

DIPOLE MOMENT
-------------
                                X             Y             Z
Electronic contribution:      0.00000       0.00000      -0.00000
Nuclear contribution   :      0.00000       0.00000       0.00000
                        -----------------------------------------
Total Dipole Moment    :      0.00000       0.00000      -0.00000
                        -----------------------------------------
Magnitude (a.u.)       :      0.00000
Magnitude (Debye)      :      0.00000

VIBRATIONAL FREQUENCIES
-----------------------

Scaling factor for frequencies =  1.000000000 (already applied!)

   0:         0.00 cm**-1
   1:         0.00 cm**-1
   2:         0.00 cm**-1
   3:         0.00 cm**-1
   4:         0.00 cm**-1
   5:       240.19 cm**-1

IR SPECTRUM
-----------

 Mode    freq (cm**-1)   T**2         TX         TY         TZ
-------------------------------------------------------------------
   5:       240.19    0.000000  ( -0.000004   0.000002   0.000052)

--------------------------
THERMOCHEMISTRY AT 298.15K
--------------------------

Temperature         ... 298.15 K
Pressure            ... 1.00 atm
Total Mass          ... 127.10 AMU
The molecule is recognized as being linear

Throughout the following assumptions are being made:
  (1) The electronic state is orbitally nondegenerate
  (2) There are no thermally accessible electronically excited states
  (3) Hindered rotations indicated by low frequency modes are not
      treated as such but are treated as vibrations and this may
      cause some error
  (4) All equations used are the standard statistical mechanics
      equations for an ideal gas
  (5) All vibrations are strictly harmonic

freq.     240.19  E(vib)   ...       0.31

------------
INNER ENERGY
------------

The inner energy is: U= E(el) + E(ZPE) + E(vib) + E(rot) + E(trans)
    E(el)   - is the total energy from the electronic structure calculation
              = E(kin-el) + E(nuc-el) + E(el-el) + E(nuc-nuc)
    E(ZPE)  - the the zero temperature vibrational energy from the frequency calculation
    E(vib)  - the the finite temperature correction to E(ZPE) due to population
              of excited vibrational states
    E(rot)  - is the rotational thermal energy
    E(trans)- is the translational thermal energy

Summary of contributions to the inner energy U:
Electronic energy                ...  -3280.36534079 Eh
Zero point energy                ...      0.00054719 Eh       0.34 kcal/mol
Thermal vibrational correction   ...      0.00050043 Eh       0.31 kcal/mol
Thermal rotational correction    ...      0.00094418 Eh       0.59 kcal/mol
Thermal translational correction ...      0.00141627 Eh       0.89 kcal/mol
-----------------------------------------------------------------------
Total thermal energy                  -3280.36193272 Eh

Summary of corrections to the electronic energy:
(perhaps to be used in another calculation)
Total thermal correction                  0.00286088 Eh       1.80 kcal/mol
Non-thermal (ZPE) correction              0.00054719 Eh       0.34 kcal/mol
-----------------------------------------------------------------------
Total correction                          0.00340807 Eh       2.14 kcal/mol

--------
ENTHALPY
--------

The enthalpy is H = U + kB*T
                kB is Boltzmann's constant
Total free energy                 ...  -3280.36193272 Eh
Thermal Enthalpy correction       ...      0.00094421 Eh       0.59 kcal/mol
-----------------------------------------------------------------------
Total Enthalpy                    ...  -3280.36098851 Eh

Note: Rotational entropy computed according to Herzberg
Infrared and Raman Spectra, Chapter V,1, Van Nostrand Reinhold, 1945
Point Group:  Dinfh, Symmetry Number:   2
Rotational constants in cm-1:     0.000000     0.100553     0.100553

Vibrational entropy computed according to the QRRHO of S. Grimme
Chem.Eur.J. 2012 18 9955

-------
ENTROPY
-------

The entropy contributions are T*S = T*(S(el)+S(vib)+S(rot)+S(trans))
     S(el)   - electronic entropy
     S(vib)  - vibrational entropy
     S(rot)  - rotational entropy
     S(trans)- translational entropy
The entropies will be listed as mutliplied by the temperature to get
units of energy

Electronic entropy                ...      0.00000000 Eh      0.00 kcal/mol
Vibrational entropy               ...      0.00085850 Eh      0.54 kcal/mol
Rotational entropy                ...      0.00749466 Eh      4.70 kcal/mol
Translational entropy             ...      0.01921087 Eh     12.05 kcal/mol
-----------------------------------------------------------------------
Final entropy term                ...      0.02756403 Eh     17.30 kcal/mol

In case the symmetry of your molecule has not been determined correctly
or in case you have a reason to use a different symmetry number we print
out the resulting rotational entropy values for sn=1,12 :
 --------------------------------------------------------
|  sn= 1 | S(rot)=             -inf Eh      -inf kcal/mol|
|  sn= 2 | S(rot)=             -inf Eh      -inf kcal/mol|
|  sn= 3 | S(rot)=             -inf Eh      -inf kcal/mol|
|  sn= 4 | S(rot)=             -inf Eh      -inf kcal/mol|
|  sn= 5 | S(rot)=             -inf Eh      -inf kcal/mol|
|  sn= 6 | S(rot)=             -inf Eh      -inf kcal/mol|
|  sn= 7 | S(rot)=             -inf Eh      -inf kcal/mol|
|  sn= 8 | S(rot)=             -inf Eh      -inf kcal/mol|
|  sn= 9 | S(rot)=             -inf Eh      -inf kcal/mol|
|  sn=10 | S(rot)=             -inf Eh      -inf kcal/mol|
|  sn=11 | S(rot)=             -inf Eh      -inf kcal/mol|
|  sn=12 | S(rot)=             -inf Eh      -inf kcal/mol|
 --------------------------------------------------------

-------------------
GIBBS FREE ENERGY
-------------------

The Gibbs free energy is G = H - T*S

Total enthalpy                    ...  -3280.36098851 Eh
Total entropy correction          ...     -0.02756403 Eh    -17.30 kcal/mol
-----------------------------------------------------------------------
Final Gibbs free energy         ...  -3280.38855254 Eh

For completeness - the Gibbs free energy minus the electronic energy
G-E(el)                           ...     -0.02321175 Eh    -14.57 kcal/mol

                             ****ORCA TERMINATED NORMALLY****
TOTAL RUN TIME: 0 days 0 hours 2 minutes 46 seconds 314 msec
