                         Program Version 4.2.0 -  RELEASE  -
|  1> #
|  2> # Cu03C1_D3H ri-DSD-BLYP/2013-D3BJ/Def2-TZVPPD
|  3> #
|  4> ! rijk ri-dsd-blyp/2013 d3bj def2-tzvppd def2/jk def2-tzvppd/c grid4 nofinalgrid opt xyzfile numfreq
|  5>
|  6> *xyz 1 1
|  7> Cu       0.000000    1.349261   -0.000000
|  8> Cu       1.168494   -0.674630    0.000000
|  9> Cu      -1.168494   -0.674630   -0.000000
| 10> *
| 11>
| 12> %maxcore 5000
| 13>
| 14> %pal
| 15> nprocs = 24
| 16> end
| 17>
| 18>
| 19>                          ****END OF INPUT****
 Total Charge           Charge          ....    1
 Multiplicity           Mult            ....    1
 Number of Electrons    NEL             ....   86
Dispersion correction            ... done
MP2 TOTAL ENERGY:    -4920.342618087 Eh
Dispersion correction           -0.009289565
FINAL SINGLE POINT ENERGY     -4920.351907651323
Dispersion correction            ... done
MP2 TOTAL ENERGY:    -4920.342682836 Eh
Dispersion correction           -0.009276104
FINAL SINGLE POINT ENERGY     -4920.351958939808
FINAL SINGLE POINT ENERGY     -4920.351953257481
FINAL SINGLE POINT ENERGY     -4920.351702973132
Dispersion correction            ... done
MP2 TOTAL ENERGY:    -4920.342880271 Eh
Dispersion correction           -0.008788749
FINAL SINGLE POINT ENERGY     -4920.351669020019
                    ***********************HURRAY********************

CARTESIAN COORDINATES (ANGSTROEM)
---------------------------------
  Cu    -0.000000    1.400089    0.000000
  Cu     1.212277   -0.700044    0.000000
  Cu    -1.212277   -0.700044    0.000000

 Multiplicity           Mult            ....    1
 Number of Electrons    NEL             ....   86
 Basis Dimension        Dim             ....  201

ORBITAL ENERGIES
----------------

  NO   OCC          E(Eh)            E(eV)
   0   2.0000    -326.916237     -8895.8431
   1   2.0000    -326.916235     -8895.8430
   2   2.0000    -326.916228     -8895.8428
   3   2.0000     -40.288608     -1096.3087
   4   2.0000     -40.288607     -1096.3087
   5   2.0000     -40.288583     -1096.3081
   6   2.0000     -35.234310      -958.7743
   7   2.0000     -35.234297      -958.7740
   8   2.0000     -35.234296      -958.7739
   9   2.0000     -35.233589      -958.7547
  10   2.0000     -35.233589      -958.7547
  11   2.0000     -35.233582      -958.7545
  12   2.0000     -35.233457      -958.7511
  13   2.0000     -35.233456      -958.7511
  14   2.0000     -35.233444      -958.7507
  15   2.0000      -4.948095      -134.6445
  16   2.0000      -4.947710      -134.6340
  17   2.0000      -4.947708      -134.6340
  18   2.0000      -3.328665       -90.5776
  19   2.0000      -3.327123       -90.5356
  20   2.0000      -3.327121       -90.5356
  21   2.0000      -3.325257       -90.4848
  22   2.0000      -3.324871       -90.4743
  23   2.0000      -3.324869       -90.4743
  24   2.0000      -3.324541       -90.4654
  25   2.0000      -3.324229       -90.4569
  26   2.0000      -3.324226       -90.4568
  27   2.0000      -0.642164       -17.4742
  28   2.0000      -0.628409       -17.0999
  29   2.0000      -0.628392       -17.0994
  30   2.0000      -0.628342       -17.0980
  31   2.0000      -0.618866       -16.8402
  32   2.0000      -0.616305       -16.7705
  33   2.0000      -0.616302       -16.7704
  34   2.0000      -0.600953       -16.3528
  35   2.0000      -0.600942       -16.3525
  36   2.0000      -0.599369       -16.3097
  37   2.0000      -0.595054       -16.1922
  38   2.0000      -0.595043       -16.1920
  39   2.0000      -0.593380       -16.1467
  40   2.0000      -0.593353       -16.1459
  41   2.0000      -0.576646       -15.6913
  42   2.0000      -0.463453       -12.6112
  43   0.0000      -0.195742        -5.3264
  44   0.0000      -0.195728        -5.3260
  45   0.0000      -0.148861        -4.0507
  46   0.0000      -0.115006        -3.1295
  47   0.0000      -0.093780        -2.5519

Dispersion correction            ... done

MULLIKEN ATOMIC CHARGES
-----------------------
   0 Cu:    0.333452
   1 Cu:    0.333274
   2 Cu:    0.333274
Sum of atomic charges:    1.0000000

LOEWDIN ATOMIC CHARGES
----------------------
   0 Cu:    0.333369
   1 Cu:    0.333315
   2 Cu:    0.333315

  Mayer bond orders larger than 0.100000
B(  0-Cu,  1-Cu) :   0.4864 B(  0-Cu,  2-Cu) :   0.4864 B(  1-Cu,  2-Cu) :   0.4866

MP2 TOTAL ENERGY:    -4920.342879654 Eh
Dispersion correction           -0.008788591
FINAL SINGLE POINT ENERGY     -4920.351668245614

DIPOLE MOMENT
-------------
                                X             Y             Z
Electronic contribution:      0.00000       0.00021       0.00000
Nuclear contribution   :      0.00000       0.00000       0.00000
                        -----------------------------------------
Total Dipole Moment    :      0.00000       0.00021       0.00000
                        -----------------------------------------
Magnitude (a.u.)       :      0.00021
Magnitude (Debye)      :      0.00054

VIBRATIONAL FREQUENCIES
-----------------------

Scaling factor for frequencies =  1.000000000 (already applied!)

   0:         0.00 cm**-1
   1:         0.00 cm**-1
   2:         0.00 cm**-1
   3:         0.00 cm**-1
   4:         0.00 cm**-1
   5:         0.00 cm**-1
   6:       177.60 cm**-1
   7:       178.05 cm**-1
   8:       247.24 cm**-1

IR SPECTRUM
-----------

 Mode    freq (cm**-1)   T**2         TX         TY         TZ
-------------------------------------------------------------------
   6:       177.60    2.632656  ( -1.622537   0.005596  -0.000004)
   7:       178.05    2.625553  (  0.005582   1.620346  -0.000007)
   8:       247.24    0.000024  (  0.000012   0.004920  -0.000001)

--------------------------
THERMOCHEMISTRY AT 298.15K
--------------------------

Temperature         ... 298.15 K
Pressure            ... 1.00 atm
Total Mass          ... 190.65 AMU

Throughout the following assumptions are being made:
  (1) The electronic state is orbitally nondegenerate
  (2) There are no thermally accessible electronically excited states
  (3) Hindered rotations indicated by low frequency modes are not
      treated as such but are treated as vibrations and this may
      cause some error
  (4) All equations used are the standard statistical mechanics
      equations for an ideal gas
  (5) All vibrations are strictly harmonic

freq.     177.60  E(vib)   ...       0.37
freq.     178.05  E(vib)   ...       0.37
freq.     247.24  E(vib)   ...       0.31

------------
INNER ENERGY
------------

The inner energy is: U= E(el) + E(ZPE) + E(vib) + E(rot) + E(trans)
    E(el)   - is the total energy from the electronic structure calculation
              = E(kin-el) + E(nuc-el) + E(el-el) + E(nuc-nuc)
    E(ZPE)  - the the zero temperature vibrational energy from the frequency calculation
    E(vib)  - the the finite temperature correction to E(ZPE) due to population
              of excited vibrational states
    E(rot)  - is the rotational thermal energy
    E(trans)- is the translational thermal energy

Summary of contributions to the inner energy U:
Electronic energy                ...  -4920.35166772 Eh
Zero point energy                ...      0.00137349 Eh       0.86 kcal/mol
Thermal vibrational correction   ...      0.00168305 Eh       1.06 kcal/mol
Thermal rotational correction    ...      0.00141627 Eh       0.89 kcal/mol
Thermal translational correction ...      0.00141627 Eh       0.89 kcal/mol
-----------------------------------------------------------------------
Total thermal energy                  -4920.34577864 Eh

Summary of corrections to the electronic energy:
(perhaps to be used in another calculation)
Total thermal correction                  0.00451559 Eh       2.83 kcal/mol
Non-thermal (ZPE) correction              0.00137349 Eh       0.86 kcal/mol
-----------------------------------------------------------------------
Total correction                          0.00588908 Eh       3.70 kcal/mol

--------
ENTHALPY
--------

The enthalpy is H = U + kB*T
                kB is Boltzmann's constant
Total free energy                 ...  -4920.34577864 Eh
Thermal Enthalpy correction       ...      0.00094421 Eh       0.59 kcal/mol
-----------------------------------------------------------------------
Total Enthalpy                    ...  -4920.34483443 Eh

Note: Rotational entropy computed according to Herzberg
Infrared and Raman Spectra, Chapter V,1, Van Nostrand Reinhold, 1945
Point Group:  C2v, Symmetry Number:   2
Rotational constants in cm-1:     0.090250     0.090215     0.045116

Vibrational entropy computed according to the QRRHO of S. Grimme
Chem.Eur.J. 2012 18 9955

-------
ENTROPY
-------

The entropy contributions are T*S = T*(S(el)+S(vib)+S(rot)+S(trans))
     S(el)   - electronic entropy
     S(vib)  - vibrational entropy
     S(rot)  - rotational entropy
     S(trans)- translational entropy
The entropies will be listed as mutliplied by the temperature to get
units of energy

Electronic entropy                ...      0.00000000 Eh      0.00 kcal/mol
Vibrational entropy               ...      0.00306249 Eh      1.92 kcal/mol
Rotational entropy                ...      0.01259023 Eh      7.90 kcal/mol
Translational entropy             ...      0.01978512 Eh     12.42 kcal/mol
-----------------------------------------------------------------------
Final entropy term                ...      0.03543783 Eh     22.24 kcal/mol

In case the symmetry of your molecule has not been determined correctly
or in case you have a reason to use a different symmetry number we print
out the resulting rotational entropy values for sn=1,12 :
 --------------------------------------------------------
|  sn= 1 | S(rot)=       0.01324469 Eh      8.31 kcal/mol|
|  sn= 2 | S(rot)=       0.01259023 Eh      7.90 kcal/mol|
|  sn= 3 | S(rot)=       0.01220740 Eh      7.66 kcal/mol|
|  sn= 4 | S(rot)=       0.01193577 Eh      7.49 kcal/mol|
|  sn= 5 | S(rot)=       0.01172509 Eh      7.36 kcal/mol|
|  sn= 6 | S(rot)=       0.01155294 Eh      7.25 kcal/mol|
|  sn= 7 | S(rot)=       0.01140740 Eh      7.16 kcal/mol|
|  sn= 8 | S(rot)=       0.01128132 Eh      7.08 kcal/mol|
|  sn= 9 | S(rot)=       0.01117011 Eh      7.01 kcal/mol|
|  sn=10 | S(rot)=       0.01107063 Eh      6.95 kcal/mol|
|  sn=11 | S(rot)=       0.01098064 Eh      6.89 kcal/mol|
|  sn=12 | S(rot)=       0.01089849 Eh      6.84 kcal/mol|
 --------------------------------------------------------

-------------------
GIBBS FREE ENERGY
-------------------

The Gibbs free energy is G = H - T*S

Total enthalpy                    ...  -4920.34483443 Eh
Total entropy correction          ...     -0.03543783 Eh    -22.24 kcal/mol
-----------------------------------------------------------------------
Final Gibbs free energy         ...  -4920.38027226 Eh

For completeness - the Gibbs free energy minus the electronic energy
G-E(el)                           ...     -0.02860454 Eh    -17.95 kcal/mol

                             ****ORCA TERMINATED NORMALLY****
TOTAL RUN TIME: 0 days 0 hours 8 minutes 26 seconds 746 msec
