                         Program Version 4.2.0 -  RELEASE  -
|  1> #
|  2> # Cu03N0_LIN ri-DSD-BLYP/2013-D3BJ/Def2-TZVPPD
|  3> #
|  4> ! rijk ri-dsd-blyp/2013 d3bj def2-tzvppd def2/jk def2-tzvppd/c grid4 nofinalgrid opt xyzfile numfreq
|  5>
|  6> *xyz 0 2
|  7> Cu       0.000000    0.000000    0.000000
|  8> Cu       0.000000    0.000000    2.291099
|  9> Cu       0.000000    0.000000   -2.291099
| 10> *
| 11>
| 12> %maxcore 5000
| 13>
| 14> %pal
| 15> nprocs = 24
| 16> end
| 17>
| 18>
| 19>                          ****END OF INPUT****
 Total Charge           Charge          ....    0
 Multiplicity           Mult            ....    2
 Number of Electrons    NEL             ....   87
Dispersion correction            ... done
MP2 TOTAL ENERGY:    -4920.536434076 Eh
Dispersion correction           -0.006648069
FINAL SINGLE POINT ENERGY     -4920.543082145394
Dispersion correction            ... done
MP2 TOTAL ENERGY:    -4920.536508381 Eh
Dispersion correction           -0.006634019
FINAL SINGLE POINT ENERGY     -4920.543142399561
FINAL SINGLE POINT ENERGY     -4920.542489007379
FINAL SINGLE POINT ENERGY     -4920.541450952583
FINAL SINGLE POINT ENERGY     -4920.541049141603
Dispersion correction            ... done
MP2 TOTAL ENERGY:    -4920.534947198 Eh
Dispersion correction           -0.006066208
FINAL SINGLE POINT ENERGY     -4920.541013406722
                    ***********************HURRAY********************

CARTESIAN COORDINATES (ANGSTROEM)
---------------------------------
  Cu     0.000000   -0.000000   -0.000000
  Cu    -0.000000    0.000000    2.445046
  Cu    -0.000000    0.000000   -2.445046

 Multiplicity           Mult            ....    2
 Number of Electrons    NEL             ....   87
 Basis Dimension        Dim             ....  201

ORBITAL ENERGIES
----------------
                 SPIN UP ORBITALS
  NO   OCC          E(Eh)            E(eV)
   0   1.0000    -326.716257     -8890.4013
   1   1.0000    -326.716255     -8890.4013
   2   1.0000    -326.698535     -8889.9191
   3   1.0000     -40.088172     -1090.8546
   4   1.0000     -40.088165     -1090.8544
   5   1.0000     -40.072847     -1090.4376
   6   1.0000     -35.032805      -953.2911
   7   1.0000     -35.032804      -953.2911
   8   1.0000     -35.032718      -953.2887
   9   1.0000     -35.032718      -953.2887
  10   1.0000     -35.032717      -953.2887
  11   1.0000     -35.032717      -953.2887
  12   1.0000     -35.017970      -952.8874
  13   1.0000     -35.017845      -952.8840
  14   1.0000     -35.017845      -952.8840
  15   1.0000      -4.747702      -129.1915
  16   1.0000      -4.747689      -129.1912
  17   1.0000      -4.729863      -128.7061
  18   1.0000      -3.125059       -85.0372
  19   1.0000      -3.124833       -85.0310
  20   1.0000      -3.123047       -84.9824
  21   1.0000      -3.123047       -84.9824
  22   1.0000      -3.123044       -84.9823
  23   1.0000      -3.123044       -84.9823
  24   1.0000      -3.109317       -84.6088
  25   1.0000      -3.106142       -84.5224
  26   1.0000      -3.106142       -84.5224
  27   1.0000      -0.430310       -11.7093
  28   1.0000      -0.417912       -11.3720
  29   1.0000      -0.417912       -11.3720
  30   1.0000      -0.408432       -11.1140
  31   1.0000      -0.408432       -11.1140
  32   1.0000      -0.407479       -11.0881
  33   1.0000      -0.407212       -11.0808
  34   1.0000      -0.407207       -11.0807
  35   1.0000      -0.406647       -11.0654
  36   1.0000      -0.406642       -11.0653
  37   1.0000      -0.388328       -10.5669
  38   1.0000      -0.388320       -10.5667
  39   1.0000      -0.378682       -10.3045
  40   1.0000      -0.378682       -10.3045
  41   1.0000      -0.372328       -10.1316
  42   1.0000      -0.260803        -7.0968
  43   1.0000      -0.216010        -5.8779
  44   0.0000      -0.013617        -0.3705
  45   0.0000       0.010724         0.2918
  46   0.0000       0.010724         0.2918
  47   0.0000       0.030779         0.8375
  48   0.0000       0.040912         1.1133

                 SPIN DOWN ORBITALS
  NO   OCC          E(Eh)            E(eV)
   0   1.0000    -326.715105     -8890.3700
   1   1.0000    -326.715103     -8890.3699
   2   1.0000    -326.698783     -8889.9259
   3   1.0000     -40.088213     -1090.8557
   4   1.0000     -40.088206     -1090.8555
   5   1.0000     -40.073457     -1090.4542
   6   1.0000     -35.033927      -953.3216
   7   1.0000     -35.033926      -953.3216
   8   1.0000     -35.033635      -953.3137
   9   1.0000     -35.033635      -953.3137
  10   1.0000     -35.033634      -953.3136
  11   1.0000     -35.033634      -953.3136
  12   1.0000     -35.017969      -952.8874
  13   1.0000     -35.017969      -952.8874
  14   1.0000     -35.017968      -952.8874
  15   1.0000      -4.746395      -129.1560
  16   1.0000      -4.746383      -129.1556
  17   1.0000      -4.731393      -128.7478
  18   1.0000      -3.126528       -85.0771
  19   1.0000      -3.126353       -85.0724
  20   1.0000      -3.124900       -85.0329
  21   1.0000      -3.124900       -85.0329
  22   1.0000      -3.124895       -85.0327
  23   1.0000      -3.124895       -85.0327
  24   1.0000      -3.108862       -84.5964
  25   1.0000      -3.107080       -84.5479
  26   1.0000      -3.107080       -84.5479
  27   1.0000      -0.429618       -11.6905
  28   1.0000      -0.417702       -11.3662
  29   1.0000      -0.417702       -11.3662
  30   1.0000      -0.409146       -11.1334
  31   1.0000      -0.408721       -11.1219
  32   1.0000      -0.408721       -11.1219
  33   1.0000      -0.407783       -11.0963
  34   1.0000      -0.407778       -11.0962
  35   1.0000      -0.407255       -11.0820
  36   1.0000      -0.407250       -11.0818
  37   1.0000      -0.389050       -10.5866
  38   1.0000      -0.389043       -10.5864
  39   1.0000      -0.380766       -10.3612
  40   1.0000      -0.380766       -10.3612
  41   1.0000      -0.372359       -10.1324
  42   1.0000      -0.225516        -6.1366
  43   0.0000      -0.057851        -1.5742
  44   0.0000       0.004658         0.1268
  45   0.0000       0.017552         0.4776
  46   0.0000       0.017552         0.4776
  47   0.0000       0.042118         1.1461

Dispersion correction            ... done

MULLIKEN ATOMIC CHARGES AND SPIN DENSITIES
------------------------------------------
   0 Cu:   -0.326777   -0.135817
   1 Cu:    0.163388    0.567909
   2 Cu:    0.163388    0.567908
Sum of atomic charges       :   -0.0000000

LOEWDIN ATOMIC CHARGES AND SPIN DENSITIES
-----------------------------------------
   0 Cu:   -0.237415    0.358899
   1 Cu:    0.118708    0.320551
   2 Cu:    0.118708    0.320551

  Mayer bond orders larger than 0.100000
B(  0-Cu,  1-Cu) :   0.5301 B(  0-Cu,  2-Cu) :   0.5301

MP2 TOTAL ENERGY:    -4920.534946057 Eh
Dispersion correction           -0.006066134
FINAL SINGLE POINT ENERGY     -4920.541012191065

DIPOLE MOMENT
-------------
                                X             Y             Z
Electronic contribution:     -0.00000       0.00000       0.00000
Nuclear contribution   :      0.00000       0.00000      -0.00000
                        -----------------------------------------
Total Dipole Moment    :     -0.00000       0.00000       0.00000
                        -----------------------------------------
Magnitude (a.u.)       :      0.00000
Magnitude (Debye)      :      0.00000

VIBRATIONAL FREQUENCIES
-----------------------

Scaling factor for frequencies =  1.000000000 (already applied!)

   0:         0.00 cm**-1
   1:         0.00 cm**-1
   2:         0.00 cm**-1
   3:         0.00 cm**-1
   4:         0.00 cm**-1
   5:         0.00 cm**-1
   6:      -156.78 cm**-1 ***imaginary mode***
   7:       130.21 cm**-1
   8:       200.92 cm**-1

IR SPECTRUM
-----------

 Mode    freq (cm**-1)   T**2         TX         TY         TZ
-------------------------------------------------------------------
   7:       130.21    0.000000  (  0.000006  -0.000006   0.000001)
   8:       200.92   13.699738  (  0.000009   0.000005   3.701316)

--------------------------
THERMOCHEMISTRY AT 298.15K
--------------------------

Temperature         ... 298.15 K
Pressure            ... 1.00 atm
Total Mass          ... 190.65 AMU
The molecule is recognized as being linear

Throughout the following assumptions are being made:
  (1) The electronic state is orbitally nondegenerate
      but the spin degeneracy is treated
  (2) There are no thermally accessible electronically excited states
  (3) Hindered rotations indicated by low frequency modes are not
      treated as such but are treated as vibrations and this may
      cause some error
  (4) All equations used are the standard statistical mechanics
      equations for an ideal gas
  (5) All vibrations are strictly harmonic

freq.     130.21  E(vib)   ...       0.43
freq.     200.92  E(vib)   ...       0.35

------------
INNER ENERGY
------------

The inner energy is: U= E(el) + E(ZPE) + E(vib) + E(rot) + E(trans)
    E(el)   - is the total energy from the electronic structure calculation
              = E(kin-el) + E(nuc-el) + E(el-el) + E(nuc-nuc)
    E(ZPE)  - the the zero temperature vibrational energy from the frequency calculation
    E(vib)  - the the finite temperature correction to E(ZPE) due to population
              of excited vibrational states
    E(rot)  - is the rotational thermal energy
    E(trans)- is the translational thermal energy

Summary of contributions to the inner energy U:
Electronic energy                ...  -4920.54101169 Eh
Zero point energy                ...      0.00075436 Eh       0.47 kcal/mol
Thermal vibrational correction   ...      0.00123775 Eh       0.78 kcal/mol
Thermal rotational correction    ...      0.00094418 Eh       0.59 kcal/mol
Thermal translational correction ...      0.00141627 Eh       0.89 kcal/mol
-----------------------------------------------------------------------
Total thermal energy                  -4920.53665913 Eh

Summary of corrections to the electronic energy:
(perhaps to be used in another calculation)
Total thermal correction                  0.00359820 Eh       2.26 kcal/mol
Non-thermal (ZPE) correction              0.00075436 Eh       0.47 kcal/mol
-----------------------------------------------------------------------
Total correction                          0.00435256 Eh       2.73 kcal/mol

--------
ENTHALPY
--------

The enthalpy is H = U + kB*T
                kB is Boltzmann's constant
Total free energy                 ...  -4920.53665913 Eh
Thermal Enthalpy correction       ...      0.00094421 Eh       0.59 kcal/mol
-----------------------------------------------------------------------
Total Enthalpy                    ...  -4920.53571492 Eh

Note: Rotational entropy computed according to Herzberg
Infrared and Raman Spectra, Chapter V,1, Van Nostrand Reinhold, 1945
Point Group:  Dinfh, Symmetry Number:   2
Rotational constants in cm-1:     0.000000     0.022186     0.022186

Vibrational entropy computed according to the QRRHO of S. Grimme
Chem.Eur.J. 2012 18 9955

-------
ENTROPY
-------

The entropy contributions are T*S = T*(S(el)+S(vib)+S(rot)+S(trans))
     S(el)   - electronic entropy
     S(vib)  - vibrational entropy
     S(rot)  - rotational entropy
     S(trans)- translational entropy
The entropies will be listed as mutliplied by the temperature to get
units of energy

Electronic entropy                ...      0.00065446 Eh      0.41 kcal/mol
Vibrational entropy               ...      0.00236593 Eh      1.48 kcal/mol
Rotational entropy                ...      0.00892153 Eh      5.60 kcal/mol
Translational entropy             ...      0.01978512 Eh     12.42 kcal/mol
-----------------------------------------------------------------------
Final entropy term                ...      0.03172704 Eh     19.91 kcal/mol

In case the symmetry of your molecule has not been determined correctly
or in case you have a reason to use a different symmetry number we print
out the resulting rotational entropy values for sn=1,12 :
 --------------------------------------------------------
|  sn= 1 | S(rot)=      -0.00139144 Eh     -0.87 kcal/mol|
|  sn= 2 | S(rot)=      -0.00204590 Eh     -1.28 kcal/mol|
|  sn= 3 | S(rot)=      -0.00242873 Eh     -1.52 kcal/mol|
|  sn= 4 | S(rot)=      -0.00270035 Eh     -1.69 kcal/mol|
|  sn= 5 | S(rot)=      -0.00291104 Eh     -1.83 kcal/mol|
|  sn= 6 | S(rot)=      -0.00308319 Eh     -1.93 kcal/mol|
|  sn= 7 | S(rot)=      -0.00322873 Eh     -2.03 kcal/mol|
|  sn= 8 | S(rot)=      -0.00335481 Eh     -2.11 kcal/mol|
|  sn= 9 | S(rot)=      -0.00346602 Eh     -2.17 kcal/mol|
|  sn=10 | S(rot)=      -0.00356550 Eh     -2.24 kcal/mol|
|  sn=11 | S(rot)=      -0.00365549 Eh     -2.29 kcal/mol|
|  sn=12 | S(rot)=      -0.00373764 Eh     -2.35 kcal/mol|
 --------------------------------------------------------

-------------------
GIBBS FREE ENERGY
-------------------

The Gibbs free energy is G = H - T*S

Total enthalpy                    ...  -4920.53571492 Eh
Total entropy correction          ...     -0.03172704 Eh    -19.91 kcal/mol
-----------------------------------------------------------------------
Final Gibbs free energy         ...  -4920.56744196 Eh

For completeness - the Gibbs free energy minus the electronic energy
G-E(el)                           ...     -0.02643027 Eh    -16.59 kcal/mol

                             ****ORCA TERMINATED NORMALLY****
TOTAL RUN TIME: 0 days 0 hours 10 minutes 20 seconds 133 msec
