                         Program Version 4.2.0 -  RELEASE  -
|  1> #
|  2> # Cu03N0_D3H ri-DSD-BLYP/2013-D3BJ/Def2-TZVPPD
|  3> #
|  4> ! rijk ri-dsd-blyp/2013 d3bj def2-tzvppd def2/jk def2-tzvppd/c grid4 nofinalgrid opt xyzfile numfreq
|  5>
|  6> *xyz 0 2
|  7> Cu       0.000000    1.346828   -0.000000
|  8> Cu       1.166387   -0.673414   -0.000000
|  9> Cu      -1.166387   -0.673414   -0.000000
| 10> *
| 11>
| 12> %maxcore 5000
| 13>
| 14> %pal
| 15> nprocs = 24
| 16> end
| 17>
| 18>
| 19>                          ****END OF INPUT****
 Total Charge           Charge          ....    0
 Multiplicity           Mult            ....    2
 Number of Electrons    NEL             ....   87
Dispersion correction            ... done
MP2 TOTAL ENERGY:    -4920.543249361 Eh
Dispersion correction           -0.009312655
FINAL SINGLE POINT ENERGY     -4920.552562016119
Dispersion correction            ... done
MP2 TOTAL ENERGY:    -4920.543390210 Eh
Dispersion correction           -0.009299935
FINAL SINGLE POINT ENERGY     -4920.552690144922
FINAL SINGLE POINT ENERGY     -4920.554331128992
FINAL SINGLE POINT ENERGY     -4920.554204892049
FINAL SINGLE POINT ENERGY     -4920.554151577618
FINAL SINGLE POINT ENERGY     -4920.554146451715
FINAL SINGLE POINT ENERGY     -4920.554134479615
FINAL SINGLE POINT ENERGY     -4920.554117746006
Dispersion correction            ... done
MP2 TOTAL ENERGY:    -4920.545344317 Eh
Dispersion correction           -0.008758467
FINAL SINGLE POINT ENERGY     -4920.554102783758
                    ***********************HURRAY********************

CARTESIAN COORDINATES (ANGSTROEM)
---------------------------------
  Cu     0.000001    1.460977    0.000000
  Cu     1.161368   -0.730488    0.000000
  Cu    -1.161369   -0.730490    0.000000

 Multiplicity           Mult            ....    2
 Number of Electrons    NEL             ....   87
 Basis Dimension        Dim             ....  201

ORBITAL ENERGIES
----------------
                 SPIN UP ORBITALS
  NO   OCC          E(Eh)            E(eV)
   0   1.0000    -326.724912     -8890.6368
   1   1.0000    -326.724907     -8890.6367
   2   1.0000    -326.702594     -8890.0296
   3   1.0000     -40.098521     -1091.1362
   4   1.0000     -40.098504     -1091.1358
   5   1.0000     -40.077444     -1090.5627
   6   1.0000     -35.043547      -953.5834
   7   1.0000     -35.043540      -953.5832
   8   1.0000     -35.043396      -953.5793
   9   1.0000     -35.043386      -953.5790
  10   1.0000     -35.043356      -953.5782
  11   1.0000     -35.043350      -953.5780
  12   1.0000     -35.021952      -952.9958
  13   1.0000     -35.021862      -952.9933
  14   1.0000     -35.021270      -952.9772
  15   1.0000      -4.757240      -129.4511
  16   1.0000      -4.756791      -129.4389
  17   1.0000      -4.735112      -128.8489
  18   1.0000      -3.138026       -85.3900
  19   1.0000      -3.133763       -85.2740
  20   1.0000      -3.133738       -85.2733
  21   1.0000      -3.133390       -85.2639
  22   1.0000      -3.133298       -85.2614
  23   1.0000      -3.132961       -85.2522
  24   1.0000      -3.111149       -84.6587
  25   1.0000      -3.110898       -84.6518
  26   1.0000      -3.109425       -84.6118
  27   1.0000      -0.446936       -12.1618
  28   1.0000      -0.440020       -11.9736
  29   1.0000      -0.434864       -11.8332
  30   1.0000      -0.423665       -11.5285
  31   1.0000      -0.422717       -11.5027
  32   1.0000      -0.422628       -11.5003
  33   1.0000      -0.415165       -11.2972
  34   1.0000      -0.404417       -11.0048
  35   1.0000      -0.402203       -10.9445
  36   1.0000      -0.398572       -10.8457
  37   1.0000      -0.390932       -10.6378
  38   1.0000      -0.390308       -10.6208
  39   1.0000      -0.386712       -10.5230
  40   1.0000      -0.386237       -10.5100
  41   1.0000      -0.375688       -10.2230
  42   1.0000      -0.290174        -7.8960
  43   1.0000      -0.164605        -4.4791
  44   0.0000      -0.038506        -1.0478
  45   0.0000       0.003673         0.0999
  46   0.0000       0.020395         0.5550
  47   0.0000       0.040899         1.1129
  48   0.0000       0.042160         1.1472

                 SPIN DOWN ORBITALS
  NO   OCC          E(Eh)            E(eV)
   0   1.0000    -326.724666     -8890.6302
   1   1.0000    -326.724661     -8890.6300
   2   1.0000    -326.701678     -8890.0046
   3   1.0000     -40.098584     -1091.1379
   4   1.0000     -40.098568     -1091.1375
   5   1.0000     -40.076970     -1090.5498
   6   1.0000     -35.043685      -953.5872
   7   1.0000     -35.043674      -953.5868
   8   1.0000     -35.043600      -953.5848
   9   1.0000     -35.043594      -953.5847
  10   1.0000     -35.043400      -953.5794
  11   1.0000     -35.043394      -953.5792
  12   1.0000     -35.022335      -953.0062
  13   1.0000     -35.021893      -952.9941
  14   1.0000     -35.021815      -952.9920
  15   1.0000      -4.757068      -129.4464
  16   1.0000      -4.756622      -129.4343
  17   1.0000      -4.733033      -128.7924
  18   1.0000      -3.138097       -85.3920
  19   1.0000      -3.134724       -85.3002
  20   1.0000      -3.133906       -85.2779
  21   1.0000      -3.133629       -85.2704
  22   1.0000      -3.133306       -85.2616
  23   1.0000      -3.132708       -85.2453
  24   1.0000      -3.111985       -84.6814
  25   1.0000      -3.110536       -84.6420
  26   1.0000      -3.109488       -84.6135
  27   1.0000      -0.447718       -12.1830
  28   1.0000      -0.438834       -11.9413
  29   1.0000      -0.435153       -11.8411
  30   1.0000      -0.422775       -11.5043
  31   1.0000      -0.422638       -11.5006
  32   1.0000      -0.421826       -11.4785
  33   1.0000      -0.415736       -11.3128
  34   1.0000      -0.404357       -11.0031
  35   1.0000      -0.402661       -10.9570
  36   1.0000      -0.399547       -10.8722
  37   1.0000      -0.390483       -10.6256
  38   1.0000      -0.389966       -10.6115
  39   1.0000      -0.386171       -10.5082
  40   1.0000      -0.384502       -10.4628
  41   1.0000      -0.373044       -10.1510
  42   1.0000      -0.271598        -7.3906
  43   0.0000      -0.031943        -0.8692
  44   0.0000      -0.013248        -0.3605
  45   0.0000       0.009243         0.2515
  46   0.0000       0.030481         0.8294
  47   0.0000       0.055205         1.5022

Dispersion correction            ... done

MULLIKEN ATOMIC CHARGES AND SPIN DENSITIES
------------------------------------------
   0 Cu:   -0.104611    0.627875
   1 Cu:    0.052306    0.186058
   2 Cu:    0.052305    0.186067
Sum of atomic charges       :   -0.0000000

LOEWDIN ATOMIC CHARGES AND SPIN DENSITIES
-----------------------------------------
   0 Cu:   -0.028156    0.419552
   1 Cu:    0.014078    0.290223
   2 Cu:    0.014078    0.290224

  Mayer bond orders larger than 0.100000
B(  0-Cu,  1-Cu) :   0.3611 B(  0-Cu,  2-Cu) :   0.3611 B(  1-Cu,  2-Cu) :   0.7787

MP2 TOTAL ENERGY:    -4920.545340782 Eh
Dispersion correction           -0.008759411
FINAL SINGLE POINT ENERGY     -4920.554100193609

DIPOLE MOMENT
-------------
                                X             Y             Z
Electronic contribution:      0.00000      -0.39423      -0.00000
Nuclear contribution   :      0.00000      -0.00000       0.00000
                        -----------------------------------------
Total Dipole Moment    :      0.00000      -0.39423      -0.00000
                        -----------------------------------------
Magnitude (a.u.)       :      0.39423
Magnitude (Debye)      :      1.00206

VIBRATIONAL FREQUENCIES
-----------------------

Scaling factor for frequencies =  1.000000000 (already applied!)

   0:         0.00 cm**-1
   1:         0.00 cm**-1
   2:         0.00 cm**-1
   3:         0.00 cm**-1
   4:         0.00 cm**-1
   5:         0.00 cm**-1
   6:       -77.12 cm**-1 ***imaginary mode***
   7:       185.44 cm**-1
   8:       250.03 cm**-1

IR SPECTRUM
-----------

 Mode    freq (cm**-1)   T**2         TX         TY         TZ
-------------------------------------------------------------------
   7:       185.44    0.089635  (  0.000057  -0.299391  -0.000007)
   8:       250.03    1.067945  ( -0.000010  -1.033414  -0.000003)

--------------------------
THERMOCHEMISTRY AT 298.15K
--------------------------

Temperature         ... 298.15 K
Pressure            ... 1.00 atm
Total Mass          ... 190.65 AMU

Throughout the following assumptions are being made:
  (1) The electronic state is orbitally nondegenerate
      but the spin degeneracy is treated
  (2) There are no thermally accessible electronically excited states
  (3) Hindered rotations indicated by low frequency modes are not
      treated as such but are treated as vibrations and this may
      cause some error
  (4) All equations used are the standard statistical mechanics
      equations for an ideal gas
  (5) All vibrations are strictly harmonic

freq.     185.44  E(vib)   ...       0.37
freq.     250.03  E(vib)   ...       0.31

------------
INNER ENERGY
------------

The inner energy is: U= E(el) + E(ZPE) + E(vib) + E(rot) + E(trans)
    E(el)   - is the total energy from the electronic structure calculation
              = E(kin-el) + E(nuc-el) + E(el-el) + E(nuc-nuc)
    E(ZPE)  - the the zero temperature vibrational energy from the frequency calculation
    E(vib)  - the the finite temperature correction to E(ZPE) due to population
              of excited vibrational states
    E(rot)  - is the rotational thermal energy
    E(trans)- is the translational thermal energy

Summary of contributions to the inner energy U:
Electronic energy                ...  -4920.55410016 Eh
Zero point energy                ...      0.00099207 Eh       0.62 kcal/mol
Thermal vibrational correction   ...      0.00107039 Eh       0.67 kcal/mol
Thermal rotational correction    ...      0.00141627 Eh       0.89 kcal/mol
Thermal translational correction ...      0.00141627 Eh       0.89 kcal/mol
-----------------------------------------------------------------------
Total thermal energy                  -4920.54920516 Eh

Summary of corrections to the electronic energy:
(perhaps to be used in another calculation)
Total thermal correction                  0.00390293 Eh       2.45 kcal/mol
Non-thermal (ZPE) correction              0.00099207 Eh       0.62 kcal/mol
-----------------------------------------------------------------------
Total correction                          0.00489500 Eh       3.07 kcal/mol

--------
ENTHALPY
--------

The enthalpy is H = U + kB*T
                kB is Boltzmann's constant
Total free energy                 ...  -4920.54920516 Eh
Thermal Enthalpy correction       ...      0.00094421 Eh       0.59 kcal/mol
-----------------------------------------------------------------------
Total Enthalpy                    ...  -4920.54826095 Eh

Note: Rotational entropy computed according to Herzberg
Infrared and Raman Spectra, Chapter V,1, Van Nostrand Reinhold, 1945
Point Group:  Cs, Symmetry Number:   1
Rotational constants in cm-1:     0.098336     0.082852     0.044966

Vibrational entropy computed according to the QRRHO of S. Grimme
Chem.Eur.J. 2012 18 9955

-------
ENTROPY
-------

The entropy contributions are T*S = T*(S(el)+S(vib)+S(rot)+S(trans))
     S(el)   - electronic entropy
     S(vib)  - vibrational entropy
     S(rot)  - rotational entropy
     S(trans)- translational entropy
The entropies will be listed as mutliplied by the temperature to get
units of energy

Electronic entropy                ...      0.00065446 Eh      0.41 kcal/mol
Vibrational entropy               ...      0.00190352 Eh      1.19 kcal/mol
Rotational entropy                ...      0.01324595 Eh      8.31 kcal/mol
Translational entropy             ...      0.01978512 Eh     12.42 kcal/mol
-----------------------------------------------------------------------
Final entropy term                ...      0.03558904 Eh     22.33 kcal/mol

In case the symmetry of your molecule has not been determined correctly
or in case you have a reason to use a different symmetry number we print
out the resulting rotational entropy values for sn=1,12 :
 --------------------------------------------------------
|  sn= 1 | S(rot)=       0.01324595 Eh      8.31 kcal/mol|
|  sn= 2 | S(rot)=       0.01259149 Eh      7.90 kcal/mol|
|  sn= 3 | S(rot)=       0.01220866 Eh      7.66 kcal/mol|
|  sn= 4 | S(rot)=       0.01193704 Eh      7.49 kcal/mol|
|  sn= 5 | S(rot)=       0.01172635 Eh      7.36 kcal/mol|
|  sn= 6 | S(rot)=       0.01155420 Eh      7.25 kcal/mol|
|  sn= 7 | S(rot)=       0.01140866 Eh      7.16 kcal/mol|
|  sn= 8 | S(rot)=       0.01128258 Eh      7.08 kcal/mol|
|  sn= 9 | S(rot)=       0.01117137 Eh      7.01 kcal/mol|
|  sn=10 | S(rot)=       0.01107189 Eh      6.95 kcal/mol|
|  sn=11 | S(rot)=       0.01098190 Eh      6.89 kcal/mol|
|  sn=12 | S(rot)=       0.01089975 Eh      6.84 kcal/mol|
 --------------------------------------------------------

-------------------
GIBBS FREE ENERGY
-------------------

The Gibbs free energy is G = H - T*S

Total enthalpy                    ...  -4920.54826095 Eh
Total entropy correction          ...     -0.03558904 Eh    -22.33 kcal/mol
-----------------------------------------------------------------------
Final Gibbs free energy         ...  -4920.58384999 Eh

For completeness - the Gibbs free energy minus the electronic energy
G-E(el)                           ...     -0.02974984 Eh    -18.67 kcal/mol

                             ****ORCA TERMINATED NORMALLY****
TOTAL RUN TIME: 0 days 0 hours 13 minutes 53 seconds 203 msec
