                               Psi4 1.3.2 release

  ==> Input File <==

--------------------------------------------------------------------------
memory 144 GB

molecule {
0 1
Ag       0.000000    0.000000    0.317712
F        0.000000    0.000000   -1.659163
 }

set basis Def2-TZVPPD

energy("GAM")
--------------------------------------------------------------------------

    Molecular point group: c2v

    Geometry (in Angstrom), charge = 0, multiplicity = 1:

       Center              X                  Y                   Z               Mass
    ------------   -----------------  -----------------  -----------------  -----------------
         AG           0.000000000000     0.000000000000     0.298303619952   106.905091600000
         F            0.000000000000     0.000000000000    -1.678571380048    18.998403162730

  Charge       = 0
  Multiplicity = 1
  Basis Set: DEF2-TZVPPD
    Blend: DEF2-TZVPPD
  Basis Set: (DEF2-TZVPPD AUX)
    Blend: DEF2-TZVPP-JKFIT

    Orbital Energies [Eh]
    ---------------------

    Doubly Occupied:

       1A1   -24.110739     2A1    -3.610608     3A1    -2.242540
       1B1    -2.240544     1B2    -2.240544     4A1    -0.953090
       5A1    -0.349749     2B1    -0.319898     2B2    -0.319898
       6A1    -0.305440     1A2    -0.305435     7A1    -0.243713
       3B1    -0.239280     3B2    -0.239280

  @DF-RKS Final Energy:  -247.41474660987319

   => Energetics <=

    Nuclear Repulsion Energy =             45.7739123741106511
    One-Electron Energy =                -493.4697179492545729
    Two-Electron Energy =                 225.5609865170868318
    DFT Exchange-Correlation Energy =     -25.2799275518160727
    Empirical Dispersion Energy =           0.0000000000000000
    VV10 Nonlocal Energy =                  0.0000000000000000
    Total Energy =                       -247.4147466098731911

  Dipole Moment: [D]
     X:     0.0000      Y:     0.0000      Z:     5.3152     Total:     5.3152

*** Psi4 exiting successfully. Buy a developer a beer!
