                               Psi4 1.3.2 release

  ==> Input File <==

--------------------------------------------------------------------------
memory 144 GB

molecule {
0 1
Ag       0.000000    0.000000    0.033547
H        0.000000    0.000000   -1.576706
 }

set basis Def2-TZVPPD

energy("GAM")
--------------------------------------------------------------------------

    Molecular point group: c2v

    Geometry (in Angstrom), charge = 0, multiplicity = 1:

       Center              X                  Y                   Z               Mass
    ------------   -----------------  -----------------  -----------------  -----------------
         AG           0.000000000000     0.000000000000     0.015038545267   106.905091600000
         H            0.000000000000     0.000000000000    -1.595214454733     1.007825032230

  Charge       = 0
  Multiplicity = 1
  Basis Set: DEF2-TZVPPD
    Blend: DEF2-TZVPPD
  Basis Set: (DEF2-TZVPPD AUX)
    Blend: DEF2-TZVPP-JKFIT

    Orbital Energies [Eh]
    ---------------------

    Doubly Occupied:

       1A1    -3.595522     2A1    -2.231270     1B1    -2.222202
       1B2    -2.222202     3A1    -0.343598     2B1    -0.291795
       2B2    -0.291795     1A2    -0.283431     4A1    -0.283430
       5A1    -0.211813

  @DF-RKS Final Energy:  -148.15263442803806

   => Energetics <=

    Nuclear Repulsion Energy =              6.2439672540464146
    One-Electron Energy =                -274.4429962854626410
    Two-Electron Energy =                 135.1795313998310633
    DFT Exchange-Correlation Energy =     -15.1331367964529022
    Empirical Dispersion Energy =           0.0000000000000000
    VV10 Nonlocal Energy =                  0.0000000000000000
    Total Energy =                       -148.1526344280380556

  Dipole Moment: [D]
     X:     0.0000      Y:     0.0000      Z:     2.5523     Total:     2.5523

*** Psi4 exiting successfully. Buy a developer a beer!
