                               Psi4 1.4.1 release

  ==> Input File <==

--------------------------------------------------------------------------
memory 144 GB

molecule {
0 2
Ag       0.000000    0.000000    0.000000
 }

set reference uks
set basis Def2-TZVPPD

energy("GAM")
--------------------------------------------------------------------------

    Molecular point group: d2h
    Geometry (in Angstrom), charge = 0, multiplicity = 2:

       Center              X                  Y                   Z               Mass
    ------------   -----------------  -----------------  -----------------  -----------------
         AG           0.000000000000     0.000000000000     0.000000000000   106.905091600000

  Charge       = 0
  Multiplicity = 2
  Basis Set: DEF2-TZVPPD
    Blend: DEF2-TZVPPD
  Basis Set: (DEF2-TZVPPD AUX)
    Blend: DEF2-UNIVERSAL-JKFIT

    Orbital Energies [Eh]
    ---------------------

    Alpha Occupied:

       1Ag    -3.571169     1B2u   -2.202158     1B1u   -2.202158
       1B3u   -2.202158     2Ag    -0.272565     1B2g   -0.272565
       1B3g   -0.272565     1B1g   -0.272565     3Ag    -0.272565
       4Ag    -0.166453

    Alpha Virtual:

       2B3u   -0.019761     2B1u   -0.019761     2B2u   -0.019761
       5Ag     0.101815     3B3u    0.183175     3B1u    0.183175
       3B2u    0.183175     6Ag     0.360500     2B2g    0.360500
       2B1g    0.360500     2B3g    0.360500     7Ag     0.360500
       4B3u    1.532342     4B1u    1.532342     4B2u    1.532342
       1Au     1.532342     5B3u    1.532342     5B1u    1.532342
       5B2u    1.532342     6B3u    1.547301     6B1u    1.547301
       6B2u    1.547301     8Ag     1.783289     9Ag     1.968879
       3B2g    1.968879     3B3g    1.968879     3B1g    1.968879
      10Ag     1.968879     7B2u    4.679365     7B1u    4.679365
       2Au     4.679365     7B3u    4.679365     8B2u    4.679365
       8B1u    4.679365     8B3u    4.679365    11Ag     5.426486
       4B2g    5.426486     4B3g    5.426486     4B1g    5.426486
      12Ag     5.426486     5B2g    5.426486     5B3g    5.426486
       5B1g    5.426486    13Ag     5.426486    14Ag    33.249299
      15Ag   110.756946

    Beta Occupied:

       1Ag    -3.571663     1B1u   -2.202083     1B2u   -2.202083
       1B3u   -2.202083     1B3g   -0.265167     2Ag    -0.265167
       1B1g   -0.265167     3Ag    -0.265167     1B2g   -0.265167

    Beta Virtual:

       4Ag    -0.147058     2B3u    0.010226     2B1u    0.010227
       2B2u    0.010227     5Ag     0.300568     6Ag     0.353924
       2B2g    0.353925     2B1g    0.353925     7Ag     0.353926
       2B3g    0.353926     3B2u    0.429741     3B1u    0.429741
       3B3u    0.429744     4B2u    1.542796     4B3u    1.542796
       4B1u    1.542796     1Au     1.542796     5B2u    1.542796
       5B3u    1.542796     5B1u    1.542796     6B3u    1.575663
       6B1u    1.575663     6B2u    1.575663     8Ag     1.822619
       9Ag     1.965315     3B2g    1.965315     3B1g    1.965315
      10Ag     1.965315     3B3g    1.965315     7B2u    4.683986
       7B1u    4.683986     7B3u    4.683987     2Au     4.683987
       8B1u    4.683987     8B2u    4.683987     8B3u    4.683987
       4B1g    5.427480    11Ag     5.427480     4B3g    5.427480
       4B2g    5.427480    12Ag     5.427480     5B1g    5.427480
       5B3g    5.427480     5B2g    5.427480    13Ag     5.427480
      14Ag    33.252768    15Ag   110.764666

    Final Occupation by Irrep:
             Ag   B1g   B2g   B3g    Au   B1u   B2u   B3u
    DOCC [     3,    1,    1,    1,    0,    1,    1,    1 ]
    SOCC [     1,    0,    0,    0,    0,    0,    0,    0 ]

  @DF-UKS Final Energy:  -147.56660206540334

   => Energetics <=

    Nuclear Repulsion Energy =              0.0000000000000000
    One-Electron Energy =                -261.7562078380802859
    Two-Electron Energy =                 129.0055252802602581
    DFT Exchange-Correlation Energy =     -14.8159195075833168
    Empirical Dispersion Energy =           0.0000000000000000
    VV10 Nonlocal Energy =                  0.0000000000000000
    Total Energy =                       -147.5666020654033446

  UHF NO Occupations:
  HONO-2 :    3 Ag 1.9999073
  HONO-1 :    1B3g 1.9999073
  HONO-0 :    4 Ag 1.0000000
  LUNO+0 :    2B3g 0.0000927
  LUNO+1 :    5 Ag 0.0000927
  LUNO+2 :    2B2g 0.0000927
  LUNO+3 :    2B1g 0.0000927

Computation Completed

Properties will be evaluated at   0.000000,   0.000000,   0.000000 [a0]

Properties computed using the SCF density matrix

  Nuclear Dipole Moment: [e a0]
     X:     0.0000      Y:     0.0000      Z:     0.0000

  Electronic Dipole Moment: [e a0]
     X:     0.0000      Y:     0.0000      Z:     0.0000

  Dipole Moment: [e a0]
     X:     0.0000      Y:     0.0000      Z:     0.0000     Total:     0.0000

  Dipole Moment: [D]
     X:     0.0000      Y:     0.0000      Z:     0.0000     Total:     0.0000

*** tstop() called on compute415.bc4.acrc.priv at Tue Nov  2 11:03:42 2021
Module time:
	user time   =      46.05 seconds =       0.77 minutes
	system time =       2.02 seconds =       0.03 minutes
	total time  =          3 seconds =       0.05 minutes
Total time:
	user time   =      46.05 seconds =       0.77 minutes
	system time =       2.02 seconds =       0.03 minutes
	total time  =          3 seconds =       0.05 minutes

    Psi4 stopped on: Tuesday, 02 November 2021 11:03AM
    Psi4 wall time for execution: 0:00:02.91

*** Psi4 exiting successfully. Buy a developer a beer!
