                               Psi4 1.3.2 release

  ==> Input File <==

--------------------------------------------------------------------------
memory 144 GB

molecule {
0 1
Ag       0.000000    0.000000    1.261821
Ag       0.000000    0.000000   -1.261821
 }

set basis Def2-TZVPPD

energy("GAM")
--------------------------------------------------------------------------

    Molecular point group: d2h

    Geometry (in Angstrom), charge = 0, multiplicity = 1:

       Center              X                  Y                   Z               Mass
    ------------   -----------------  -----------------  -----------------  -----------------
         AG           0.000000000000     0.000000000000     1.261821000000   106.905091600000
         AG           0.000000000000     0.000000000000    -1.261821000000   106.905091600000

  Charge       = 0
  Multiplicity = 1
  Basis Set: DEF2-TZVPPD
    Blend: DEF2-TZVPPD
  Basis Set: (DEF2-TZVPPD AUX)
    Blend: DEF2-TZVPP-JKFIT

    Orbital Energies [Eh]
    ---------------------

    Doubly Occupied:

       1Ag    -3.573512     1B1u   -3.572907     2Ag    -2.209325
       2B1u   -2.203056     1B3u   -2.202390     1B2u   -2.202390
       1B2g   -2.201795     1B3g   -2.201795     3Ag    -0.308752
       2B3u   -0.290363     2B2u   -0.290363     4Ag    -0.270502
       1B1g   -0.270501     3B1u   -0.263140     1Au    -0.263139
       2B2g   -0.253526     2B3g   -0.253526     4B1u   -0.247470
       5Ag    -0.185807

  @DF-RKS Final Energy:  -295.19778276468833

   => Energetics <=

    Nuclear Repulsion Energy =             75.6973346662759781
    One-Electron Energy =                -674.9036476814438856
    Two-Electron Energy =                 333.6628222014533662
    DFT Exchange-Correlation Energy =     -29.6542919509737857
    Empirical Dispersion Energy =           0.0000000000000000
    VV10 Nonlocal Energy =                  0.0000000000000000
    Total Energy =                       -295.1977827646883270

  Dipole Moment: [D]
     X:     0.0000      Y:     0.0000      Z:     0.0000     Total:     0.0000

*** Psi4 exiting successfully. Buy a developer a beer!
