                               Psi4 1.4.1 release

  ==> Input File <==

--------------------------------------------------------------------------
memory 120 GB

molecule {
0 2
Ag       0.000000    1.533951   -0.000000
Ag       1.328441   -0.766976    0.000000
Ag      -1.328441   -0.766976   -0.000000
 }

set reference uks
set basis Def2-TZVPPD
set mom_start 10

energy("GAM")
--------------------------------------------------------------------------

    Molecular point group: c2v

    Geometry (in Angstrom), charge = 0, multiplicity = 2:

       Center              X                  Y                   Z               Mass
    ------------   -----------------  -----------------  -----------------  -----------------
         AG           0.000000000000    -0.000000000000     1.533951333333   106.905091600000
         AG           1.328441000000     0.000000000000    -0.766975666667   106.905091600000
         AG          -1.328441000000    -0.000000000000    -0.766975666667   106.905091600000

  Charge       = 0
  Multiplicity = 2
  Basis Set: DEF2-TZVPPD
    Blend: DEF2-TZVPPD
  Basis Set: (DEF2-TZVPPD AUX)
    Blend: DEF2-UNIVERSAL-JKFIT

    Orbital Energies [Eh]
    ---------------------

    Alpha Occupied:

       1A1    -3.592989     1B1    -3.592684     2A1    -3.573910
       3A1    -2.227367     2B1    -2.223988     4A1    -2.222968
       3B1    -2.222218     1B2    -2.221878     1A2    -2.221548
       5A1    -2.205834     4B1    -2.204619     2B2    -2.201425
       6A1    -0.331747     7A1    -0.317295     3B2    -0.310138
       5B1    -0.309294     8A1    -0.296653     4B2    -0.295305
       2A2    -0.290599     6B1    -0.279515     3A2    -0.276371
       7B1    -0.274418     9A1    -0.265915     4A2    -0.264054
       5B2    -0.262211    10A1    -0.261664     8B1    -0.252773
      11A1    -0.226203    12A1    -0.126744

    Alpha Virtual:

       9B1    -0.131379     6B2    -0.060820    13A1    -0.033102
      14A1    -0.021325    10B1    -0.020686     5A2     0.017215
       7B2     0.020822    11B1     0.075220    12B1     0.080526
      15A1     0.083985    16A1     0.096056    17A1     0.149748
      13B1     0.155203     8B2     0.159265    18A1     0.161807
      19A1     0.178417    14B1     0.181307     6A2     0.211127
       9B2     0.220424    15B1     0.278580    20A1     0.322538
      16B1     0.325181    21A1     0.330134    10B2     0.353852
       7A2     0.354257    11B2     0.363967    17B1     0.450306
      22A1     0.452724     8A2     0.488522    23A1     0.513362
       9A2     0.544522    12B2     0.547940    24A1     0.554902
      18B1     0.555191    19B1     0.638985    25A1     0.642440
      20B1     0.686026    26A1     1.414383    21B1     1.417361
      27A1     1.451300    28A1     1.460713    13B2     1.482196
      14B2     1.491022    10A2     1.491866    29A1     1.509985
      22B1     1.514704    15B2     1.515073    11A2     1.525683
      12A2     1.530833    23B1     1.533499    16B2     1.539646
      17B2     1.541797    30A1     1.555735    24B1     1.557473
      25B1     1.561959    18B2     1.563286    31A1     1.573340
      13A2     1.579654    26B1     1.617872    27B1     1.624275
      32A1     1.629615    33A1     1.650492    14A2     1.658497
      19B2     1.665087    34A1     1.693090    28B1     1.693267
      29B1     1.836272    35A1     1.881253    36A1     1.968740
      20B2     1.974787    15A2     1.981473    30B1     2.006704
      37A1     2.013690    21B2     2.013906    16A2     2.025226
      38A1     2.038439    31B1     2.039003    17A2     2.047901
      22B2     2.056852    32B1     2.145030    39A1     2.150319
      33B1     2.174883    40A1     2.291105    34B1     2.453754
      41A1     2.459450    42A1     4.607941    43A1     4.621771
      35B1     4.625328    23B2     4.629703    18A2     4.639099
      24B2     4.639427    44A1     4.646091    25B2     4.658109
      45A1     4.660400    36B1     4.665091    19A2     4.667378
      26B2     4.682275    37B1     4.682929    20A2     4.719369
      38B1     4.738072    21A2     4.742725    46A1     4.747776
      27B2     4.747814    39B1     4.900415    47A1     4.904875
      40B1     4.920377    28B2     5.405873    48A1     5.405941
      22A2     5.406048    41B1     5.406806    49A1     5.407006
      29B2     5.407237    42B1     5.407956    23A2     5.408069
      50A1     5.408528    24A2     5.408997    30B2     5.409296
      43B1     5.409914    51A1     5.410437    44B1     5.410441
      25A2     5.410648    31B2     5.410717    45B1     5.413530
      52A1     5.415226    53A1     5.426194    32B2     5.427511
      26A2     5.428443    33B2     5.430131    54A1     5.430364
      46B1     5.430797    27A2     5.431314    55A1     5.434009
      47B1     5.434489    56A1    33.327358    48B1    33.659718
      57A1    33.671300    58A1   110.770525    49B1   110.873007
      59A1   110.884124

    Beta Occupied:

       1A1    -3.592951     1B1    -3.592647     2A1    -3.574184
       3A1    -2.227200     2B1    -2.223910     4A1    -2.222816
       3B1    -2.221986     1B2    -2.221977     1A2    -2.221649
       5A1    -2.205867     4B1    -2.204553     2B2    -2.201469
       6A1    -0.330019     7A1    -0.315208     3B2    -0.308661
       5B1    -0.306089     8A1    -0.294197     4B2    -0.293448
       2A2    -0.288402     6B1    -0.278347     3A2    -0.275746
       7B1    -0.273141     9A1    -0.262122     4A2    -0.260510
       5B2    -0.258158    10A1    -0.257457     8B1    -0.249179
      11A1    -0.218735

    Beta Virtual:

       9B1    -0.129140    12A1    -0.125355    13A1    -0.064117
       6B2    -0.064062    10B1    -0.036221    14A1    -0.028900
       7B2    -0.006991     5A2     0.009131    11B1     0.029554
      15A1     0.032291    12B1     0.071218    16A1     0.082442
      17A1     0.123113    13B1     0.135042    18A1     0.144391
       8B2     0.146355    19A1     0.159988    14B1     0.168543
       6A2     0.211321     9B2     0.215750    15B1     0.285621
      20A1     0.336473    16B1     0.339090    21A1     0.348722
      10B2     0.363530     7A2     0.374005    11B2     0.383345
      17B1     0.468747    22A1     0.475049     8A2     0.510274
      23A1     0.526354     9A2     0.560182    12B2     0.573708
      18B1     0.574541    24A1     0.577177    19B1     0.651319
      25A1     0.661975    20B1     0.709524    26A1     1.416436
      21B1     1.421542    27A1     1.455798    28A1     1.464613
      13B2     1.483037    14B2     1.495140    10A2     1.495786
      29A1     1.512339    15B2     1.516595    22B1     1.517789
      11A2     1.527172    12A2     1.533719    23B1     1.536501
      16B2     1.544617    17B2     1.547263    30A1     1.561495
      24B1     1.562300    25B1     1.565990    18B2     1.571219
      31A1     1.581335    13A2     1.582656    26B1     1.624578
      27B1     1.628391    32A1     1.633568    33A1     1.658737
      14A2     1.661941    19B2     1.671064    34A1     1.697897
      28B1     1.702858    29B1     1.842173    35A1     1.885291
      36A1     1.974212    20B2     1.979083    15A2     1.987265
      30B1     2.010774    21B2     2.016534    37A1     2.021363
      16A2     2.031608    31B1     2.045408    38A1     2.045576
      17A2     2.051685    22B2     2.064841    32B1     2.148454
      39A1     2.157207    33B1     2.180612    40A1     2.294411
      34B1     2.456589    41A1     2.465355    42A1     4.609431
      43A1     4.622801    35B1     4.626793    23B2     4.630384
      18A2     4.640511    24B2     4.641076    44A1     4.647682
      25B2     4.659129    45A1     4.661504    36B1     4.666268
      19A2     4.668285    26B2     4.684929    37B1     4.685302
      20A2     4.720752    38B1     4.739448    21A2     4.744151
      27B2     4.749663    46A1     4.750145    39B1     4.901401
      47A1     4.906900    40B1     4.922553    28B2     5.405552
      48A1     5.406048    22A2     5.406069    49A1     5.406500
      29B2     5.406925    41B1     5.406954    23A2     5.407943
      42B1     5.408074    24A2     5.408542    50A1     5.408709
      30B2     5.409131    43B1     5.409924    51A1     5.410236
      44B1     5.410485    25A2     5.410831    31B2     5.411116
      45B1     5.413322    52A1     5.415667    53A1     5.427064
      32B2     5.427782    26A2     5.428953    54A1     5.429937
      33B2     5.430653    27A2     5.430765    46B1     5.430898
      55A1     5.434358    47B1     5.435198    56A1    33.328163
      48B1    33.660285    57A1    33.672647    58A1   110.772297
      49B1   110.873989    59A1   110.887293

    Final Occupation by Irrep:
             A1    A2    B1    B2
    DOCC [    11,    4,    8,    5 ]
    SOCC [     1,    0,    0,    0 ]

  @DF-UKS Final Energy:  -442.78501883319689

   => Energetics <=

    Nuclear Repulsion Energy =            215.7035793725837323
    One-Electron Energy =               -1215.9123689674574962
    Two-Electron Energy =                 601.9054687654322606
    DFT Exchange-Correlation Energy =     -44.4816980037554686
    Empirical Dispersion Energy =           0.0000000000000000
    VV10 Nonlocal Energy =                  0.0000000000000000
    Total Energy =                       -442.7850188331970003

  UHF NO Occupations:
  HONO-2 :    8 B1 1.9996126
  HONO-1 :   11 A1 1.9982179
  HONO-0 :   12 A1 1.0000000
  LUNO+0 :   13 A1 0.0017821
  LUNO+1 :    9 B1 0.0003874
  LUNO+2 :    6 B2 0.0001862
  LUNO+3 :   14 A1 0.0001804

Computation Completed

Properties will be evaluated at   0.000000,   0.000000,   0.000000 [a0]

Properties computed using the SCF density matrix

  Nuclear Dipole Moment: [e a0]
     X:    -0.0000      Y:    -0.0000      Z:     0.0000

  Electronic Dipole Moment: [e a0]
     X:     0.0000      Y:     0.0000      Z:    -0.4361

  Dipole Moment: [e a0]
     X:    -0.0000      Y:    -0.0000      Z:    -0.4361     Total:     0.4361

  Dipole Moment: [D]
     X:    -0.0000      Y:    -0.0000      Z:    -1.1084     Total:     1.1084

*** tstop() called on bc4login3.bc4.acrc.priv at Fri Nov  5 10:37:22 2021
Module time:
	user time   =     167.02 seconds =       2.78 minutes
	system time =      18.08 seconds =       0.30 minutes
	total time  =         22 seconds =       0.37 minutes
Total time:
	user time   =     167.02 seconds =       2.78 minutes
	system time =      18.08 seconds =       0.30 minutes
	total time  =         22 seconds =       0.37 minutes

    Psi4 stopped on: Friday, 05 November 2021 10:37AM
    Psi4 wall time for execution: 0:00:22.35

*** Psi4 exiting successfully. Buy a developer a beer!
