                               Psi4 1.3.2 release

  ==> Input File <==

--------------------------------------------------------------------------
memory 144 GB

molecule {
0 2
Ag       0.000000    0.000000    0.000000
Ag       0.000000    0.000000    2.592532
Ag       0.000000    0.000000   -2.592532
 }

set reference uks
set basis Def2-TZVPPD

energy("GAM")
--------------------------------------------------------------------------

    Molecular point group: d2h

    Geometry (in Angstrom), charge = 0, multiplicity = 2:

       Center              X                  Y                   Z               Mass
    ------------   -----------------  -----------------  -----------------  -----------------
         AG           0.000000000000     0.000000000000     0.000000000000   106.905091600000
         AG           0.000000000000     0.000000000000     2.592532000000   106.905091600000
         AG           0.000000000000     0.000000000000    -2.592532000000   106.905091600000

  Charge       = 0
  Multiplicity = 2
  Basis Set: DEF2-TZVPPD
    Blend: DEF2-TZVPPD
  Basis Set: (DEF2-TZVPPD AUX)
    Blend: DEF2-TZVPP-JKFIT

    Orbital Energies [Eh]
    ---------------------

    Alpha Occupied:

       1Ag    -3.581198     1B1u   -3.581182     2Ag    -3.575418
       2B1u   -2.215943     3Ag    -2.214268     1B3u   -2.210296
       1B2u   -2.210296     1B2g   -2.210281     1B3g   -2.210281
       3B1u   -2.207487     2B2u   -2.203642     2B3u   -2.203642
       4Ag    -0.326528     2B2g   -0.301257     2B3g   -0.301257
       4B1u   -0.286379     3B3u   -0.282766     3B2u   -0.282766
       1B1g   -0.279190     5Ag    -0.279190     1Au    -0.277483
       5B1u   -0.277482     2B1g   -0.265482     6Ag    -0.265481
       3B2g   -0.254307     3B3g   -0.254307     7Ag    -0.248179
       8Ag    -0.204305     6B1u   -0.172777

    Alpha Virtual:

       9Ag    -0.093628     4B3u   -0.052304     4B2u   -0.052304
       7B1u   -0.019782     4B2g   -0.013962     4B3g   -0.013962
       5B3u    0.051353     5B2u    0.051353    10Ag     0.072778
      11Ag     0.089853     8B1u    0.100691     9B1u    0.130402
       6B3u    0.163179     6B2u    0.163179    12Ag     0.169274
       5B2g    0.196288     5B3g    0.196288     7B3u    0.240354
       7B2u    0.240354    10B1u    0.247869    13Ag     0.270407
      14Ag     0.323238     3B1g    0.323241    11B1u    0.361626
       2Au     0.361630     6B2g    0.362182     6B3g    0.362182
      12B1u    0.403285    15Ag     0.448379     4B1g    0.448382
       8B3u    0.462782     8B2u    0.462782    16Ag     0.567059
      13B1u    0.645984     7B2g    0.646088     7B3g    0.646088
      17Ag     0.716712    14B1u    1.376806     9B3u    1.469955
       9B2u    1.469955     3Au     1.516586    15B1u    1.516594
       5B1g    1.529565    10B2u    1.529567    10B3u    1.529567
      18Ag     1.529572     8B3g    1.529659     8B2g    1.529659
      19Ag     1.538511     9B2g    1.541519     9B3g    1.541519
      11B3u    1.542429    11B2u    1.542429    12B3u    1.549288
      12B2u    1.549288     4Au     1.549335    16B1u    1.549343
      13B3u    1.567860    13B2u    1.567860    17B1u    1.605783
      20Ag     1.615757    10B2g    1.616399    10B3g    1.616399
      14B3u    1.680052    14B2u    1.680052    18B1u    1.692732
      21Ag     1.808624    19B1u    1.876051    22Ag     1.955656
       6B1g    1.955681    20B1u    1.968439     5Au     1.968463
      11B2g    1.984470    11B3g    1.984470    23Ag     2.012870
       7B1g    2.012894    15B3u    2.037607    15B2u    2.037607
      24Ag     2.076445    21B1u    2.099621    12B2g    2.131559
      12B3g    2.131559    22B1u    2.261768    25Ag     2.282917
      26Ag     2.597743    23B1u    4.607627    16B2u    4.618678
      16B3u    4.618678     6Au     4.661785    24B1u    4.662187
      17B2u    4.673265    17B3u    4.673265    13B2g    4.673368
      13B3g    4.673368     8B1g    4.674654    27Ag     4.675000
      18B2u    4.681813    18B3u    4.681813     7Au     4.690875
      25B1u    4.691343    14B2g    4.716272    14B3g    4.716272
      19B2u    4.773419    19B3u    4.773419    28Ag     4.841794
      26B1u    4.994636    20B3u    5.417619    20B2u    5.417619
      15B2g    5.417844    15B3g    5.417844     8Au     5.418000
      27B1u    5.418083     9B1g    5.418341    29Ag     5.418423
      16B3g    5.419641    16B2g    5.419641    21B2u    5.419641
      21B3u    5.419641    30Ag     5.419920    28B1u    5.420917
      31Ag     5.420926    10B1g    5.421647     9Au     5.421647
      29B1u    5.422930    11B1g    5.425595    32Ag     5.425716
      17B3g    5.427876    17B2g    5.427876    18B2g    5.428191
      18B3g    5.428191    33Ag     5.429948    12B1g    5.430978
      34Ag     5.447541    35Ag    33.307393    30B1u   33.457871
      36Ag    33.845765    37Ag   110.768523    31B1u  110.815277
      38Ag   110.942597

    Beta Occupied:

       1Ag    -3.581875     1B1u   -3.581861     2Ag    -3.575597
       2B1u   -2.216009     3Ag    -2.214381     1B3u   -2.210860
       1B2u   -2.210860     1B2g   -2.210846     1B3g   -2.210846
       3B1u   -2.207546     2B2u   -2.203906     2B3u   -2.203906
       4Ag    -0.323290     2B2g   -0.298211     2B3g   -0.298211
       4B1u   -0.282970     3B3u   -0.278891     3B2u   -0.278891
       1B1g   -0.275528     5Ag    -0.275528     1Au    -0.273207
       5B1u   -0.273207     2B1g   -0.265067     6Ag    -0.265065
       3B2g   -0.252795     3B3g   -0.252795     7Ag    -0.245587
       8Ag    -0.194775

    Beta Virtual:

       6B1u   -0.158118     9Ag    -0.091823     4B3u   -0.052425
       4B2u   -0.052425     7B1u   -0.024444     4B2g   -0.019540
       4B3g   -0.019540     5B3u    0.041698     5B2u    0.041698
      10Ag     0.064483    11Ag     0.075188     8B1u    0.078708
       9B1u    0.133449    12Ag     0.160861     6B3u    0.166461
       6B2u    0.166461     5B2g    0.204093     5B3g    0.204093
      10B1u    0.242691     7B3u    0.247287     7B2u    0.247287
      13Ag     0.285846     3B1g    0.338475    14Ag     0.338477
       6B2g    0.380939     6B3g    0.380939     2Au     0.389610
      11B1u    0.389616    12B1u    0.426971     4B1g    0.462860
      15Ag     0.462863     8B3u    0.487458     8B2u    0.487458
      16Ag     0.591155     7B2g    0.661225     7B3g    0.661225
      13B1u    0.662999    17Ag     0.728762    14B1u    1.380364
       9B3u    1.473781     9B2u    1.473781     3Au     1.520188
      15B1u    1.520196     5B1g    1.534666    18Ag     1.534674
      10B2u    1.535002    10B3u    1.535002     8B3g    1.535166
       8B2g    1.535166    19Ag     1.541512    11B3u    1.542227
      11B2u    1.542227     9B2g    1.550188     9B3g    1.550188
       4Au     1.551232    16B1u    1.551240    12B3u    1.561456
      12B2u    1.561456    13B3u    1.569488    13B2u    1.569488
      17B1u    1.617235    10B2g    1.626700    10B3g    1.626700
      20Ag     1.626909    14B3u    1.683221    14B2u    1.683221
      18B1u    1.696645    21Ag     1.815158    19B1u    1.877793
      22Ag     1.960744     6B1g    1.960768    20B1u    1.976318
       5Au     1.976338    11B2g    1.990703    11B3g    1.990703
      23Ag     2.016063     7B1g    2.016085    15B3u    2.045566
      15B2u    2.045566    24Ag     2.083310    21B1u    2.106116
      12B2g    2.135231    12B3g    2.135231    22B1u    2.270785
      25Ag     2.286362    26Ag     2.602425    23B1u    4.608905
      16B3u    4.620322    16B2u    4.620322     6Au     4.663320
      24B1u    4.663727    17B2u    4.675066    17B3u    4.675066
      13B2g    4.675204    13B3g    4.675204     8B1g    4.676831
      27Ag     4.677178    18B2u    4.681535    18B3u    4.681535
       7Au     4.691700    25B1u    4.692163    14B2g    4.718415
      14B3g    4.718415    19B3u    4.774764    19B2u    4.774764
      28Ag     4.843819    26B1u    4.995589    20B3u    5.417309
      20B2u    5.417309    15B2g    5.417533    15B3g    5.417533
       8Au     5.417799    27B1u    5.417885     9B1g    5.418141
      29Ag     5.418226    30Ag     5.419576    16B3g    5.419620
      16B2g    5.419620    21B2u    5.419620    21B3u    5.419620
      28B1u    5.421190    31Ag     5.421198    10B1g    5.421917
       9Au     5.421917    29B1u    5.422585    11B1g    5.425220
      32Ag     5.425342    17B2g    5.427469    17B3g    5.427469
      18B3g    5.427917    18B2g    5.427917    33Ag     5.429726
      12B1g    5.430756    34Ag     5.447301    35Ag    33.308530
      30B1u   33.459268    36Ag    33.846063    37Ag   110.772384
      31B1u  110.819665    38Ag   110.943987

    Final Occupation by Irrep:
             Ag   B1g   B2g   B3g    Au   B1u   B2u   B3u
    DOCC [     8,    2,    3,    3,    1,    5,    3,    3 ]
    SOCC [     0,    0,    0,    0,    0,    1,    0,    0 ]

  @DF-UKS Final Energy:  -442.79615466198470

   => Energetics <=

    Nuclear Repulsion Energy =            184.2146722314999465
    One-Electron Energy =               -1153.3325163253230130
    Two-Electron Energy =                 570.8086497264516765
    DFT Exchange-Correlation Energy =     -44.4869602946132261
    Empirical Dispersion Energy =           0.0000000000000000
    VV10 Nonlocal Energy =                  0.0000000000000000
    Total Energy =                       -442.7961546619847013

  UHF NO Occupations:
  HONO-2 :    5B1u 1.9998905
  HONO-1 :    8 Ag 1.9983100
  HONO-0 :    6B1u 1.0000000
  LUNO+0 :    9 Ag 0.0016900
  LUNO+1 :    7B1u 0.0001095
  LUNO+2 :    2 Au 0.0001095
  LUNO+3 :   10 Ag 0.0001087

Computation Completed

Properties will be evaluated at   0.000000,   0.000000,   0.000000 [a0]

Properties computed using the SCF density matrix

  Nuclear Dipole Moment: [e a0]
     X:     0.0000      Y:     0.0000      Z:     0.0000

  Electronic Dipole Moment: [e a0]
     X:     0.0000      Y:     0.0000      Z:     0.0000

  Dipole Moment: [e a0]
     X:     0.0000      Y:     0.0000      Z:     0.0000     Total:     0.0000

  Dipole Moment: [D]
     X:     0.0000      Y:     0.0000      Z:     0.0000     Total:     0.0000

*** tstop() called on bp1-compute00024.data.bp.acrc.priv at Thu Oct 28 15:24:40 2021
Module time:
	user time   =     215.22 seconds =       3.59 minutes
	system time =       6.27 seconds =       0.10 minutes
	total time  =         14 seconds =       0.23 minutes
Total time:
	user time   =     215.22 seconds =       3.59 minutes
	system time =       6.27 seconds =       0.10 minutes
	total time  =         14 seconds =       0.23 minutes

    Psi4 stopped on: Thursday, 28 October 2021 03:24PM
    Psi4 wall time for execution: 0:00:14.22

*** Psi4 exiting successfully. Buy a developer a beer!
