                               Psi4 1.3.2 release

  ==> Input File <==

--------------------------------------------------------------------------
memory 144 GB

molecule {
1 1
Ag       0.000000    1.529877    0.000000
Ag       1.324912   -0.764938    0.000000
Ag      -1.324912   -0.764938    0.000000
 }

set basis Def2-TZVPPD

energy("GAM")
--------------------------------------------------------------------------

    Molecular point group: c2v

    Geometry (in Angstrom), charge = 1, multiplicity = 1:

       Center              X                  Y                   Z               Mass
    ------------   -----------------  -----------------  -----------------  -----------------
         AG           0.000000000000     0.000000000000     1.529876666667   106.905091600000
         AG           1.324912000000     0.000000000000    -0.764938333333   106.905091600000
         AG          -1.324912000000    -0.000000000000    -0.764938333333   106.905091600000

  Charge       = 1
  Multiplicity = 1
  Basis Set: DEF2-TZVPPD
    Blend: DEF2-TZVPPD
  Basis Set: (DEF2-TZVPPD AUX)
    Blend: DEF2-TZVPP-JKFIT

    Orbital Energies [Eh]
    ---------------------

    Doubly Occupied:

       1A1    -3.779052     2A1    -3.778583     1B1    -3.778578
       3A1    -2.414061     2B1    -2.411209     4A1    -2.411204
       3B1    -2.408643     5A1    -2.408637     4B1    -2.408371
       1B2    -2.407012     2B2    -2.406508     1A2    -2.406503
       6A1    -0.521588     5B1    -0.504044     7A1    -0.504038
       3B2    -0.498321     8A1    -0.485183     2A2    -0.481704
       4B2    -0.481688     6B1    -0.464803     9A1    -0.464802
       3A2    -0.460963     4A2    -0.459148     5B2    -0.459118
      10A1    -0.458187     7B1    -0.458171     8B1    -0.444743
      11A1    -0.403481

  @DF-RKS Final Energy:  -442.58078961931858

   => Energetics <=

    Nuclear Repulsion Energy =            216.2781024753185477
    One-Electron Energy =               -1206.1549499456939429
    Two-Electron Energy =                 591.6253779090548051
    DFT Exchange-Correlation Energy =     -44.3293200579979967
    Empirical Dispersion Energy =           0.0000000000000000
    VV10 Nonlocal Energy =                  0.0000000000000000
    Total Energy =                       -442.5807896193186366

  Dipole Moment: [D]
     X:     0.0000      Y:     0.0000      Z:     0.0002     Total:     0.0002

*** Psi4 exiting successfully. Buy a developer a beer!
