                               Psi4 1.3.2 release

  ==> Input File <==

--------------------------------------------------------------------------
memory 144 GB

molecule {
1 1
Ag       0.000000    0.000000    0.000000
Ag       0.000000    0.000000    2.629319
Ag       0.000000    0.000000   -2.629319
 }

set basis Def2-TZVPPD

energy("GAM")
--------------------------------------------------------------------------

    Molecular point group: d2h

    Geometry (in Angstrom), charge = 1, multiplicity = 1:

       Center              X                  Y                   Z               Mass
    ------------   -----------------  -----------------  -----------------  -----------------
         AG           0.000000000000     0.000000000000     0.000000000000   106.905091600000
         AG           0.000000000000     0.000000000000     2.629319000000   106.905091600000
         AG           0.000000000000     0.000000000000    -2.629319000000   106.905091600000

  Charge       = 1
  Multiplicity = 1
  Basis Set: DEF2-TZVPPD
    Blend: DEF2-TZVPPD
  Basis Set: (DEF2-TZVPPD AUX)
    Blend: DEF2-TZVPP-JKFIT

    Orbital Energies [Eh]
    ---------------------

    Doubly Occupied:

       1Ag    -3.777378     1B1u   -3.777376     2Ag    -3.749970
       2B1u   -2.410528     3Ag    -2.410204     1B3u   -2.407182
       1B2u   -2.407182     1B2g   -2.407180     1B3g   -2.407180
       3B1u   -2.384873     2B3u   -2.377694     2B2u   -2.377694
       4Ag    -0.510394     2B2g   -0.486860     2B3g   -0.486860
       4B1u   -0.479768     3B3u   -0.476059     3B2u   -0.476059
       1B1g   -0.472037     5Ag    -0.472036     1Au    -0.471568
       5B1u   -0.471567     2B1g   -0.439834     6Ag    -0.439831
       3B2g   -0.438013     3B3g   -0.438012     7Ag    -0.433855
       8Ag    -0.370811

  @DF-RKS Final Energy:  -442.54282435237019

   => Energetics <=

    Nuclear Repulsion Energy =            181.6373108891218351
    One-Electron Energy =               -1137.4250433593633716
    Two-Electron Energy =                 557.5609654143812577
    DFT Exchange-Correlation Energy =     -44.3160572965099320
    Empirical Dispersion Energy =           0.0000000000000000
    VV10 Nonlocal Energy =                  0.0000000000000000
    Total Energy =                       -442.5428243523701894

  Dipole Moment: [D]
     X:     0.0000      Y:     0.0000      Z:     0.0000     Total:     0.0000

*** Psi4 exiting successfully. Buy a developer a beer!
