                               Psi4 1.4.1 release

  ==> Input File <==

--------------------------------------------------------------------------
memory 144 GB

molecule {
0 1
Ag      -1.015022   -0.433109    0.700282
Ag       0.974659   -2.209777    0.043294
Ag       1.013798    0.433158   -0.699441
Ag      -0.973435    2.209727   -0.044135
 }

set basis Def2-TZVPPD

energy("GAM")
--------------------------------------------------------------------------

    Molecular point group: c1

    Geometry (in Angstrom), charge = 0, multiplicity = 1:

       Center              X                  Y                   Z               Mass
    ------------   -----------------  -----------------  -----------------  -----------------
         AG          -1.015022000000    -0.433108750000     0.700282000000   106.905091600000
         AG           0.974659000000    -2.209776750000     0.043294000000   106.905091600000
         AG           1.013798000000     0.433158250000    -0.699441000000   106.905091600000
         AG          -0.973435000000     2.209727250000    -0.044135000000   106.905091600000

  Charge       = 0
  Multiplicity = 1
  Basis Set: DEF2-TZVPPD
    Blend: DEF2-TZVPPD
  Basis Set: (DEF2-TZVPPD AUX)
    Blend: DEF2-UNIVERSAL-JKFIT

    Orbital Energies [Eh]
    ---------------------

    Doubly Occupied:

       1A     -3.597636     2A     -3.597254     3A     -3.571058
       4A     -3.570999     5A     -2.232283     6A     -2.227901
       7A     -2.227363     8A     -2.226857     9A     -2.226503
      10A     -2.226103    11A     -2.203121    12A     -2.203000
      13A     -2.201113    14A     -2.201038    15A     -2.198656
      16A     -2.198600    17A     -0.331520    18A     -0.330442
      19A     -0.313571    20A     -0.310359    21A     -0.308137
      22A     -0.302773    23A     -0.292652    24A     -0.290800
      25A     -0.279392    26A     -0.278106    27A     -0.270983
      28A     -0.264810    29A     -0.264594    30A     -0.264440
      31A     -0.262283    32A     -0.260169    33A     -0.259081
      34A     -0.257913    35A     -0.255193    36A     -0.249050
      37A     -0.230172    38A     -0.158021

  @DF-RKS Final Energy:  -590.42293440599997

   => Energetics <=

    Nuclear Repulsion Energy =            390.9440573221471027
    One-Electron Energy =               -1828.1358394052649601
    Two-Electron Energy =                 906.0770563733146901
    DFT Exchange-Correlation Energy =     -59.3082086961967718
    Empirical Dispersion Energy =           0.0000000000000000
    VV10 Nonlocal Energy =                  0.0000000000000000
    Total Energy =                       -590.4229344059999676

  Dipole Moment: [D]
     X:    -0.0020      Y:    -0.0002      Z:     0.0013     Total:     0.0024

*** Psi4 exiting successfully. Buy a developer a beer!
