                               Psi4 1.4.1 release

  ==> Input File <==

--------------------------------------------------------------------------
memory 144 GB

molecule {
2 1
Ag      -0.000000   -0.000016    1.715553
Ag       0.000000   -1.617524   -0.571836
Ag       1.400774    0.808769   -0.571859
Ag      -1.400774    0.808770   -0.571858
 }

set basis Def2-TZVPPD

energy("GAM")
--------------------------------------------------------------------------

    Molecular point group: c1

    Geometry (in Angstrom), charge = 2, multiplicity = 1:

       Center              X                  Y                   Z               Mass
    ------------   -----------------  -----------------  -----------------  -----------------
         AG          -0.000000000000    -0.000015750000     1.715553000000   106.905091600000
         AG          -0.000000000000    -1.617523750000    -0.571836000000   106.905091600000
         AG           1.400774000000     0.808769250000    -0.571859000000   106.905091600000
         AG          -1.400774000000     0.808770250000    -0.571858000000   106.905091600000

  Charge       = 2
  Multiplicity = 1
  Basis Set: DEF2-TZVPPD
    Blend: DEF2-TZVPPD
  Basis Set: (DEF2-TZVPPD AUX)
    Blend: DEF2-UNIVERSAL-JKFIT

    Orbital Energies [Eh]
    ---------------------

    Doubly Occupied:

       1A     -3.959577     2A     -3.959291     3A     -3.959290
       4A     -3.959289     5A     -2.593342     6A     -2.591049
       7A     -2.591048     8A     -2.591047     9A     -2.589756
      10A     -2.589754    11A     -2.589111    12A     -2.589110
      13A     -2.589109    14A     -2.588683    15A     -2.588682
      16A     -2.588679    17A     -0.706073    18A     -0.682438
      19A     -0.682426    20A     -0.682413    21A     -0.675127
      22A     -0.675120    23A     -0.662684    24A     -0.662667
      25A     -0.662662    26A     -0.644925    27A     -0.644919
      28A     -0.644906    29A     -0.643839    30A     -0.643823
      31A     -0.642440    32A     -0.642439    33A     -0.642424
      34A     -0.629818    35A     -0.629812    36A     -0.629804
      37A     -0.601974

  @DF-RKS Final Energy:  -589.79147777963851

   => Energetics <=

    Nuclear Repulsion Energy =            409.1285871246527108
    One-Electron Energy =               -1836.0794353232968206
    Two-Electron Energy =                 896.1238056924328248
    DFT Exchange-Correlation Energy =     -58.9644352734273127
    Empirical Dispersion Energy =           0.0000000000000000
    VV10 Nonlocal Energy =                  0.0000000000000000
    Total Energy =                       -589.7914777796385124

  Dipole Moment: [D]
     X:    -0.0001      Y:    -0.0002      Z:    -0.0001     Total:     0.0002

*** Psi4 exiting successfully. Buy a developer a beer!
