                               Psi4 1.4.1 release

  ==> Input File <==

--------------------------------------------------------------------------
memory 144 GB

molecule {
2 2
Ag       0.000000    1.604405   -0.611776
Ag       1.389456   -0.802203   -0.611776
Ag      -1.389456   -0.802203   -0.611776
Ag       0.000000    0.000000    1.871824
H        0.000000    0.000000   -1.715373
 }

set reference uks
set basis Def2-TZVPPD

energy("GAM")
--------------------------------------------------------------------------

    Molecular point group: cs

    Geometry (in Angstrom), charge = 2, multiplicity = 2:

       Center              X                  Y                   Z               Mass
    ------------   -----------------  -----------------  -----------------  -----------------
         AG          -1.604405249412     0.616845224138     0.000000000000   106.905091600000
         AG           0.802202750588     0.616845224138     1.389456000000   106.905091600000
         AG           0.802202750588     0.616845224138    -1.389456000000   106.905091600000
         AG          -0.000000249412    -1.866754775862     0.000000000000   106.905091600000
         H           -0.000000249412     1.720442224138     0.000000000000     1.007825032230

  Charge       = 2
  Multiplicity = 2
  Basis Set: DEF2-TZVPPD
    Blend: DEF2-TZVPPD
  Basis Set: (DEF2-TZVPPD AUX)
    Blend: DEF2-UNIVERSAL-JKFIT

    Orbital Energies [Eh]
    ---------------------

    Alpha Occupied:

       1Ap    -3.974262     1App   -3.974018     2Ap    -3.974015
       3Ap    -3.941208     4Ap    -2.608530     2App   -2.606216
       5Ap    -2.606212     6Ap    -2.603727     3App   -2.603724
       7Ap    -2.603486     8Ap    -2.603013     4App   -2.603011
       5App   -2.602859     9Ap    -2.573260    10Ap    -2.571057
       6App   -2.571055    11Ap    -0.766734    12Ap    -0.708212
      13Ap    -0.692451     7App   -0.692436     8App   -0.678616
      14Ap    -0.678608    15Ap    -0.678310    16Ap    -0.666442
       9App   -0.666437    10App   -0.659867    17Ap    -0.659836
      11App   -0.656994    12App   -0.655356    18Ap    -0.655349
      19Ap    -0.648958    13App   -0.642890    14App   -0.634959
      20Ap    -0.634947    21Ap    -0.631003    15App   -0.630990
      22Ap    -0.625637    23Ap    -0.520605

    Alpha Virtual:

      16App   -0.469502    24Ap    -0.469492    25Ap    -0.407751
      26Ap    -0.349885    27Ap    -0.338439    17App   -0.338430
      18App   -0.331299    28Ap    -0.331291    29Ap    -0.222165
      19App   -0.213014    30Ap    -0.213011    31Ap    -0.204779
      20App   -0.201323    21App   -0.192705    32Ap    -0.192684
      33Ap    -0.158031    34Ap    -0.129726    35Ap    -0.116162
      22App   -0.112766    36Ap    -0.112759    37Ap    -0.103297
      23App   -0.103293    38Ap    -0.088573    24App   -0.088567
      39Ap    -0.077621    25App   -0.047605    40Ap    -0.047595
      41Ap    -0.032954    26App   -0.030436    42Ap    -0.030408
      27App   -0.024652    43Ap    -0.016274    28App   -0.007410
      44Ap    -0.007382    29App    0.059976    45Ap     0.059996
      30App    0.110112    46Ap     0.110116    47Ap     0.124490
      31App    0.150683    48Ap     0.170183    49Ap     0.209368
      50Ap     0.217968    32App    0.217976    33App    0.229818
      51Ap     0.229826    34App    0.257948    52Ap     0.257987
      53Ap     0.279679    35App    0.306319    54Ap     0.306428
      36App    0.334938    55Ap     0.334958    56Ap     0.350024
      37App    0.351496    57Ap     0.585537    38App    0.585561
      58Ap     0.676804    59Ap     1.063276    39App    1.063319
      60Ap     1.108031    61Ap     1.113533    62Ap     1.120174
      40App    1.120180    63Ap     1.125949    64Ap     1.128656
      41App    1.128686    42App    1.136841    65Ap     1.136848
      43App    1.143430    44App    1.156436    66Ap     1.156475
      45App    1.163532    46App    1.165014    67Ap     1.165017
      68Ap     1.168316    69Ap     1.170504    47App    1.171795
      70Ap     1.171814    48App    1.177528    49App    1.201581
      71Ap     1.201596    50App    1.208921    72Ap     1.208944
      51App    1.219177    73Ap     1.254082    52App    1.285219
      74Ap     1.285219    75Ap     1.294525    53App    1.323997
      76Ap     1.323997    77Ap     1.328918    54App    1.370882
      78Ap     1.370915    79Ap     1.397815    55App    1.452322
      80Ap     1.471867    56App    1.471871    57App    1.631586
      81Ap     1.631633    82Ap     1.641971    58App    1.655290
      59App    1.658032    83Ap     1.658127    84Ap     1.698218
      60App    1.705884    85Ap     1.705927    86Ap     1.727391
      87Ap     1.730097    61App    1.730113    88Ap     1.737538
      62App    1.737573    89Ap     1.750643    63App    1.750658
      64App    1.753297    90Ap     1.776809    65App    1.830135
      91Ap     1.830162    92Ap     2.071322    93Ap     2.283925
      66App    2.330609    94Ap     2.330678    95Ap     2.627199
      96Ap     2.828716    67App    2.828916    97Ap     2.875405
      98Ap     3.126009    68App    3.126808    69App    3.651891
      99Ap     3.652060   100Ap     3.695686   101Ap     4.262701
      70App    4.262748   102Ap     4.278366   103Ap     4.284817
      71App    4.284824    72App    4.288418   104Ap     4.305643
      73App    4.305679   105Ap     4.306733    74App    4.307347
     106Ap     4.323975    75App    4.324005    76App    4.324853
     107Ap     4.330836   108Ap     4.336956    77App    4.336990
     109Ap     4.349492   110Ap     4.360309    78App    4.360323
     111Ap     4.439258    79App    4.439324   112Ap     4.448084
      80App    4.476996    81App    4.493617   113Ap     4.493631
     114Ap     4.647517    82App    4.647656   115Ap     4.678511
      83App    5.023847   116Ap     5.025272    84App    5.025450
      85App    5.025713   117Ap     5.026309   118Ap     5.026422
      86App    5.026518   119Ap     5.027591    87App    5.027908
      88App    5.028088   120Ap     5.028749    89App    5.028790
      90App    5.029182    91App    5.029573   121Ap     5.029717
     122Ap     5.029894    92App    5.030632   123Ap     5.030662
      93App    5.035076   124Ap     5.035102   125Ap     5.037115
     126Ap     5.039617    94App    5.039696   127Ap     5.048272
     128Ap     5.057663    95App    5.058491   129Ap     5.058910
      96App    5.059013   130Ap     5.059695    97App    5.059867
     131Ap     5.060250   132Ap     5.063251    98App    5.064154
      99App    5.168863   133Ap     5.168899   134Ap     5.202566
     135Ap    33.040270   136Ap    33.293106   100App   33.442234
     137Ap    33.442251   138Ap   110.424751   139Ap   110.510452
     101App  110.545623   140Ap   110.545643

    Beta Occupied:

       1Ap    -3.972399     1App   -3.972157     2Ap    -3.972151
       3Ap    -3.941674     4Ap    -2.606169     2App   -2.604119
       5Ap    -2.604116     6Ap    -2.602577     3App   -2.602573
       4App   -2.602074     7Ap    -2.601246     5App   -2.600863
       8Ap    -2.600861     9Ap    -2.573295    10Ap    -2.571308
       6App   -2.571306    11Ap    -0.753523    12Ap    -0.704088
       7App   -0.691345    13Ap    -0.691343    14Ap    -0.675977
      15Ap    -0.675524     8App   -0.675523    16Ap    -0.663667
       9App   -0.663661    10App   -0.656727    17Ap    -0.656726
      11App   -0.655513    12App   -0.653868    18Ap    -0.653860
      19Ap    -0.643451    13App   -0.641761    14App   -0.631354
      20Ap    -0.631344    21Ap    -0.628174    15App   -0.628168
      22Ap    -0.619295

    Beta Virtual:

      23Ap    -0.504087    16App   -0.467778    24Ap    -0.467775
      25Ap    -0.401950    26Ap    -0.351937    27Ap    -0.337895
      17App   -0.337886    18App   -0.330625    28Ap    -0.330619
      29Ap    -0.217682    19App   -0.214804    30Ap    -0.214799
      31Ap    -0.206440    20App   -0.201391    21App   -0.183784
      32Ap    -0.183767    33Ap    -0.160892    34Ap    -0.109742
      35Ap    -0.100779    36Ap    -0.098637    22App   -0.098624
      23App   -0.087344    37Ap    -0.087343    38Ap    -0.083339
      39Ap    -0.080952    24App   -0.080950    40Ap    -0.031956
      25App   -0.031955    26App   -0.006642    41Ap    -0.006016
      42Ap     0.001089    27App    0.001090    28App    0.007110
      43Ap     0.007119    44Ap     0.007254    45Ap     0.055615
      29App    0.055652    30App    0.112198    46Ap     0.112200
      47Ap     0.132926    31App    0.153899    48Ap     0.177115
      49Ap     0.223717    50Ap     0.225873    32App    0.225881
      51Ap     0.231465    33App    0.231481    34App    0.256008
      52Ap     0.256045    53Ap     0.289470    35App    0.315392
      54Ap     0.315419    55Ap     0.343331    36App    0.343332
      37App    0.352328    56Ap     0.367127    57Ap     0.599640
      38App    0.599740    58Ap     0.683499    59Ap     1.064901
      39App    1.064910    60Ap     1.110867    61Ap     1.115356
      62Ap     1.121941    40App    1.121948    63Ap     1.128072
      64Ap     1.132275    41App    1.132302    42App    1.138441
      65Ap     1.138447    43App    1.144581    44App    1.158171
      66Ap     1.158190    45App    1.166990    67Ap     1.168150
      46App    1.168164    68Ap     1.173240    69Ap     1.175196
      47App    1.175214    70Ap     1.175532    48App    1.180424
      71Ap     1.204394    49App    1.204412    50App    1.211673
      72Ap     1.211676    51App    1.220346    73Ap     1.262020
      74Ap     1.293738    52App    1.293739    75Ap     1.299235
      76Ap     1.326668    53App    1.326674    77Ap     1.334326
      78Ap     1.376293    54App    1.376294    79Ap     1.403076
      55App    1.453840    80Ap     1.474920    56App    1.474947
      57App    1.631607    81Ap     1.631650    82Ap     1.645049
      58App    1.654691    83Ap     1.658312    59App    1.658314
      84Ap     1.704414    85Ap     1.706210    60App    1.706212
      86Ap     1.730179    61App    1.730224    87Ap     1.731034
      88Ap     1.737547    62App    1.737617    89Ap     1.751481
      63App    1.751499    64App    1.752499    90Ap     1.782426
      91Ap     1.832306    65App    1.832340    92Ap     2.079033
      93Ap     2.289373    66App    2.336239    94Ap     2.336281
      95Ap     2.656153    96Ap     2.859730    67App    2.860080
      97Ap     2.912609    98Ap     3.162547    68App    3.162665
      99Ap     3.693314    69App    3.693357   100Ap     3.751022
     101Ap     4.264549    70App    4.264598   102Ap     4.279618
     103Ap     4.286489    71App    4.286495    72App    4.289778
     104Ap     4.307701    73App    4.307729   105Ap     4.308835
      74App    4.309460   106Ap     4.325506    75App    4.325537
      76App    4.326987   107Ap     4.333073   108Ap     4.339000
      77App    4.339037   109Ap     4.352498   110Ap     4.363768
      78App    4.363796   111Ap     4.441222    79App    4.441300
     112Ap     4.451235    80App    4.477837    81App    4.496022
     113Ap     4.496031   114Ap     4.654416    82App    4.654499
     115Ap     4.684046    83App    5.025532    84App    5.026245
     116Ap     5.026404    85App    5.026954   117Ap     5.027035
     118Ap     5.027518    86App    5.027897    87App    5.028886
     119Ap     5.029072   120Ap     5.029478    88App    5.029502
      89App    5.029693    90App    5.030066   121Ap     5.030083
     122Ap     5.030721    91App    5.030755    92App    5.032492
     123Ap     5.032583    93App    5.035923   124Ap     5.035976
     125Ap     5.038928   126Ap     5.042308    94App    5.042403
     127Ap     5.051076   128Ap     5.057985    95App    5.058665
     129Ap     5.059208    96App    5.059225   130Ap     5.059833
      97App    5.059989   131Ap     5.060424   132Ap     5.063609
      98App    5.064515    99App    5.173749   133Ap     5.173812
     134Ap     5.206255   135Ap    33.041594   136Ap    33.294494
     100App   33.443551   137Ap    33.443569   138Ap   110.423829
     139Ap   110.513005   101App  110.542882   140Ap   110.542895

    Final Occupation by Irrep:
             Ap   App
    DOCC [    22,   15 ]
    SOCC [     1,    0 ]

  @DF-UKS Final Energy:  -590.32341329552128

   => Energetics <=

    Nuclear Repulsion Energy =            418.3509837772567721
    One-Electron Energy =               -1854.2694881561060356
    Two-Electron Energy =                 904.8706941368579919
    DFT Exchange-Correlation Energy =     -59.2756030535298919
    Empirical Dispersion Energy =           0.0000000000000000
    VV10 Nonlocal Energy =                  0.0000000000000000
    Total Energy =                       -590.3234132955212772

  UHF NO Occupations:
  HONO-2 :   21 Ap 1.9997916
  HONO-1 :   22 Ap 1.9987155
  HONO-0 :   23 Ap 1.0000000
  LUNO+0 :   24 Ap 0.0012845
  LUNO+1 :   25 Ap 0.0002084
  LUNO+2 :   16App 0.0002082
  LUNO+3 :   26 Ap 0.0001007

Computation Completed

Properties will be evaluated at   0.000000,   0.000000,   0.000000 [a0]

Properties computed using the SCF density matrix

  Nuclear Dipole Moment: [e a0]
     X:    -0.0000      Y:     2.6688      Z:     0.0000

  Electronic Dipole Moment: [e a0]
     X:    -0.0002      Y:    -2.4731      Z:     0.0000

  Dipole Moment: [e a0]
     X:    -0.0002      Y:     0.1958      Z:     0.0000     Total:     0.1958

  Dipole Moment: [D]
     X:    -0.0004      Y:     0.4976      Z:     0.0000     Total:     0.4976

*** tstop() called on compute130.bc4.acrc.priv at Tue Nov  2 15:19:44 2021
Module time:
	user time   =     652.57 seconds =      10.88 minutes
	system time =      27.56 seconds =       0.46 minutes
	total time  =         36 seconds =       0.60 minutes
Total time:
	user time   =     652.57 seconds =      10.88 minutes
	system time =      27.56 seconds =       0.46 minutes
	total time  =         36 seconds =       0.60 minutes

    Psi4 stopped on: Tuesday, 02 November 2021 03:19PM
    Psi4 wall time for execution: 0:00:35.38

*** Psi4 exiting successfully. Buy a developer a beer!
