                               Psi4 1.4.1 release

  ==> Input File <==

--------------------------------------------------------------------------
memory 144 GB

molecule {
2 2
Ag       0.000000    0.000000    1.733523
Ag       0.000000    1.616553   -0.602470
Ag      -1.399976   -0.808277   -0.602470
Ag       1.399976   -0.808277   -0.602470
H        0.000000    0.000000    3.472645
 }

set reference uks
set basis Def2-TZVPPD

energy("GAM")
--------------------------------------------------------------------------

    Molecular point group: cs

    Geometry (in Angstrom), charge = 2, multiplicity = 2:

       Center              X                  Y                   Z               Mass
    ------------   -----------------  -----------------  -----------------  -----------------
         AG          -0.000000249412    -1.743786155882     0.000000000000   106.905091600000
         AG          -1.616553249412     0.592206844118     0.000000000000   106.905091600000
         AG           0.808276750588     0.592206844118    -1.399976000000   106.905091600000
         AG           0.808276750588     0.592206844118     1.399976000000   106.905091600000
         H           -0.000000249412    -3.482908155882     0.000000000000     1.007825032230

  Charge       = 2
  Multiplicity = 2
  Basis Set: DEF2-TZVPPD
    Blend: DEF2-TZVPPD
  Basis Set: (DEF2-TZVPPD AUX)
    Blend: DEF2-UNIVERSAL-JKFIT

    Orbital Energies [Eh]
    ---------------------

    Alpha Occupied:

       1Ap    -3.974742     2Ap    -3.959775     1App   -3.959559
       3Ap    -3.959558     4Ap    -2.611640     5Ap    -2.600758
       2App   -2.600755     6Ap    -2.593128     3App   -2.591251
       7Ap    -2.591248     8Ap    -2.589698     9Ap    -2.589689
       4App   -2.589686     5App   -2.589097    10Ap    -2.589097
       6App   -2.588840    11Ap    -0.735607    12Ap    -0.689426
      13Ap    -0.686978     7App   -0.686945    14Ap    -0.677304
       8App   -0.677297    15Ap    -0.674826     9App   -0.665916
      16Ap    -0.665908    17Ap    -0.663046    10App   -0.650716
      18Ap    -0.650714    11App   -0.645140    12App   -0.644590
      19Ap    -0.644576    20Ap    -0.642912    13App   -0.642900
      21Ap    -0.635197    14App   -0.635195    15App   -0.629961
      22Ap    -0.607779    23Ap    -0.585024

    Alpha Virtual:

      24Ap    -0.462036    16App   -0.462034    25Ap    -0.427658
      26Ap    -0.339998    27Ap    -0.337527    17App   -0.337515
      18App   -0.323835    28Ap    -0.323834    29Ap    -0.259230
      30Ap    -0.211371    19App   -0.211369    20App   -0.198277
      21App   -0.184670    31Ap    -0.184660    32Ap    -0.183654
      33Ap    -0.143825    34Ap    -0.137190    35Ap    -0.107807
      36Ap    -0.099112    22App   -0.099110    37Ap    -0.094277
      23App   -0.094275    38Ap    -0.084534    24App   -0.084525
      39Ap    -0.063504    25App   -0.062920    40Ap    -0.062919
      26App   -0.025442    41Ap    -0.025439    27App   -0.015240
      28App   -0.002905    42Ap    -0.002869    43Ap    -0.002570
      44Ap     0.025430    45Ap     0.044277    29App    0.044285
      46Ap     0.080934    30App    0.129162    47Ap     0.129175
      48Ap     0.146334    31App    0.155911    32App    0.168963
      49Ap     0.168968    50Ap     0.176605    51Ap     0.239593
      33App    0.239609    52Ap     0.260187    34App    0.260189
      53Ap     0.274362    35App    0.312175    54Ap     0.312236
      55Ap     0.342159    36App    0.342168    37App    0.355107
      56Ap     0.371271    57Ap     0.581060    38App    0.581065
      58Ap     0.670921    59Ap     1.092314    39App    1.092334
      60Ap     1.115081    40App    1.115129    61Ap     1.117318
      62Ap     1.123401    41App    1.132446    63Ap     1.132448
      42App    1.139030    64Ap     1.142395    43App    1.144655
      65Ap     1.144672    44App    1.150366    66Ap     1.150395
      67Ap     1.151955    68Ap     1.156697    45App    1.156699
      46App    1.162042    69Ap     1.167797    70Ap     1.183354
      47App    1.183359    48App    1.184533    49App    1.189917
      71Ap     1.189941    72Ap     1.214357    50App    1.214389
      51App    1.225377    73Ap     1.238879    52App    1.238897
      74Ap     1.257952    75Ap     1.318278    53App    1.318280
      76Ap     1.324347    54App    1.331826    77Ap     1.331826
      78Ap     1.369080    79Ap     1.457366    55App    1.457388
      56App    1.461579    80Ap     1.516936    81Ap     1.577396
      57App    1.640678    82Ap     1.640727    83Ap     1.641527
      58App    1.659710    84Ap     1.659795    59App    1.665135
      60App    1.671427    85Ap     1.671493    61App    1.740057
      86Ap     1.740063    87Ap     1.754367    62App    1.754436
      88Ap     1.758159    63App    1.758202    64App    1.758564
      89Ap     1.763723    90Ap     1.770469    91Ap     1.833890
      65App    1.833956    92Ap     2.116923    93Ap     2.174931
      66App    2.277595    94Ap     2.277639    95Ap     2.384827
      96Ap     2.755704    67App    2.755906    97Ap     2.885330
      68App    2.885388    98Ap     3.292023    99Ap     3.394535
      69App    3.394546   100Ap     3.857554   101Ap     4.259620
      70App    4.259691   102Ap     4.273308   103Ap     4.282212
      71App    4.282236   104Ap     4.286454    72App    4.287976
     105Ap     4.292164    73App    4.292212   106Ap     4.293346
      74App    4.303032   107Ap     4.311043    75App    4.311065
     108Ap     4.329826    76App    4.330019    77App    4.339465
     109Ap     4.339480    78App    4.345459   110Ap     4.345463
     111Ap     4.359517    79App    4.359538   112Ap     4.477233
     113Ap     4.481705    80App    4.481742    81App    4.482143
     114Ap     4.520177    82App    4.520246   115Ap     4.693295
      83App    5.032459   116Ap     5.032552    84App    5.033035
     117Ap     5.033150    85App    5.033569   118Ap     5.033618
     119Ap     5.038112    86App    5.038236   120Ap     5.038684
      87App    5.038693   121Ap     5.038841    88App    5.039020
     122Ap     5.039398    89App    5.039633   123Ap     5.039661
      90App    5.039894    91App    5.040118   124Ap     5.040206
      92App    5.040375   125Ap     5.040778   126Ap     5.041007
      93App    5.041052    94App    5.041175   127Ap     5.041425
     128Ap     5.041813    95App    5.041968   129Ap     5.042079
      96App    5.042101   130Ap     5.042902    97App    5.043008
      98App    5.050482   131Ap     5.050616   132Ap     5.056729
     133Ap     5.091497    99App    5.091882   134Ap     5.403110
     135Ap    32.995352   100App   33.362869   136Ap    33.362881
     137Ap    33.416129   138Ap   110.410360   101App  110.528233
     139Ap   110.528243   140Ap   110.536813

    Beta Occupied:

       1Ap    -3.971629     2Ap    -3.959619     1App   -3.959404
       3Ap    -3.959404     4Ap    -2.605563     5Ap    -2.599181
       2App   -2.599178     6Ap    -2.592744     3App   -2.590974
       7Ap    -2.590971     8Ap    -2.589620     4App   -2.589616
       9Ap    -2.589542    10Ap    -2.588917     5App   -2.588917
       6App   -2.588822    11Ap    -0.715938    12Ap    -0.684753
       7App   -0.684721    13Ap    -0.684639    14Ap    -0.675990
       8App   -0.675984    15Ap    -0.663654     9App   -0.663395
      16Ap    -0.663387    17Ap    -0.662307    10App   -0.648272
      18Ap    -0.648270    11App   -0.644671    12App   -0.644131
      19Ap    -0.644116    20Ap    -0.642501    13App   -0.642491
      21Ap    -0.633646    14App   -0.633641    15App   -0.629822
      22Ap    -0.601058

    Beta Virtual:

      23Ap    -0.534636    24Ap    -0.460934    16App   -0.460933
      25Ap    -0.415565    26Ap    -0.338904    27Ap    -0.336772
      17App   -0.336761    18App   -0.323167    28Ap    -0.323167
      29Ap    -0.251049    30Ap    -0.216205    19App   -0.216203
      20App   -0.198384    21App   -0.184451    31Ap    -0.184444
      32Ap    -0.180749    33Ap    -0.145229    34Ap    -0.129524
      35Ap    -0.107947    36Ap    -0.103978    22App   -0.103976
      37Ap    -0.093825    23App   -0.093821    38Ap    -0.085567
      24App   -0.085556    39Ap    -0.076831    25App   -0.076826
      40Ap    -0.046889    26App   -0.014061    41Ap    -0.011914
      27App   -0.011909    42Ap    -0.006610    28App    0.000717
      43Ap     0.000757    44Ap     0.019069    45Ap     0.040942
      29App    0.040959    46Ap     0.094926    30App    0.131057
      47Ap     0.131059    48Ap     0.144248    31App    0.155801
      32App    0.169848    49Ap     0.169849    50Ap     0.177667
      51Ap     0.241958    33App    0.241975    52Ap     0.265886
      34App    0.265887    53Ap     0.282627    35App    0.316987
      54Ap     0.317069    36App    0.356081    55Ap     0.361774
      37App    0.361784    56Ap     0.394962    57Ap     0.646407
      38App    0.646409    58Ap     0.717670    59Ap     1.094145
      39App    1.094163    60Ap     1.117444    40App    1.117489
      61Ap     1.118367    62Ap     1.123720    41App    1.134699
      63Ap     1.134710    42App    1.143615    64Ap     1.145121
      43App    1.147914    65Ap     1.147938    44App    1.152237
      66Ap     1.152267    67Ap     1.157330    68Ap     1.157827
      45App    1.157827    46App    1.164536    69Ap     1.169088
      47App    1.184237    70Ap     1.184241    48App    1.185706
      49App    1.194945    71Ap     1.194964    72Ap     1.219018
      50App    1.219056    51App    1.225568    73Ap     1.241683
      52App    1.241705    74Ap     1.261971    53App    1.321455
      75Ap     1.321460    76Ap     1.327588    77Ap     1.333368
      54App    1.333369    78Ap     1.388439    79Ap     1.460094
      55App    1.460114    56App    1.462132    80Ap     1.533606
      81Ap     1.582797    57App    1.641795    82Ap     1.641827
      83Ap     1.642806    58App    1.660295    84Ap     1.660355
      59App    1.665089    60App    1.671809    85Ap     1.671872
      61App    1.741206    86Ap     1.741221    87Ap     1.754886
      62App    1.754959    88Ap     1.758917    63App    1.758947
      64App    1.759003    89Ap     1.766946    90Ap     1.789176
      91Ap     1.837953    65App    1.838022    92Ap     2.140125
      93Ap     2.238971    66App    2.280291    94Ap     2.280337
      95Ap     2.426563    96Ap     2.923865    67App    2.923924
      97Ap     3.017548    68App    3.017606    98Ap     3.380523
      99Ap     3.546996    69App    3.547011   100Ap     3.984576
     101Ap     4.261150    70App    4.261220   102Ap     4.273837
     103Ap     4.282780    71App    4.282804   104Ap     4.287779
      72App    4.289416   105Ap     4.292686    73App    4.292736
     106Ap     4.294009    74App    4.303455   107Ap     4.312233
      75App    4.312256    76App    4.330474   108Ap     4.331313
      77App    4.341202   109Ap     4.341230    78App    4.346294
     110Ap     4.346312   111Ap     4.362634    79App    4.362669
     112Ap     4.478195    80App    4.482579   113Ap     4.483038
      81App    4.483071   114Ap     4.529646    82App    4.529715
     115Ap     4.709590    83App    5.033985   116Ap     5.034066
      84App    5.034367   117Ap     5.034643   118Ap     5.038187
      85App    5.038380    86App    5.038392   119Ap     5.038461
      87App    5.038745   120Ap     5.038885   121Ap     5.038958
      88App    5.039275   122Ap     5.039475    89App    5.039771
     123Ap     5.039815    90App    5.039994   124Ap     5.040229
      91App    5.040479    92App    5.040517   125Ap     5.041187
     126Ap     5.041317    93App    5.041372    94App    5.041479
     127Ap     5.041704   128Ap     5.042101    95App    5.042247
      96App    5.042386   129Ap     5.042454    97App    5.043273
     130Ap     5.043299    98App    5.050845   131Ap     5.050972
     132Ap     5.057037   133Ap     5.097692    99App    5.098080
     134Ap     5.427928   135Ap    32.996038   100App   33.363141
     136Ap    33.363153   137Ap    33.418451   138Ap   110.409824
     101App  110.528298   139Ap   110.528308   140Ap   110.534376

    Final Occupation by Irrep:
             Ap   App
    DOCC [    22,   15 ]
    SOCC [     1,    0 ]

  @DF-UKS Final Energy:  -590.31147985104349

   => Energetics <=

    Nuclear Repulsion Energy =            419.0822019403161676
    One-Electron Energy =               -1855.9584811584718409
    Two-Electron Energy =                 905.8097008888730670
    DFT Exchange-Correlation Energy =     -59.2449015217609869
    Empirical Dispersion Energy =           0.0000000000000000
    VV10 Nonlocal Energy =                  0.0000000000000000
    Total Energy =                       -590.3114798510434866

  UHF NO Occupations:
  HONO-2 :   15App 1.9998962
  HONO-1 :   22 Ap 1.9973483
  HONO-0 :   23 Ap 1.0000000
  LUNO+0 :   24 Ap 0.0026517
  LUNO+1 :   16App 0.0001038
  LUNO+2 :   25 Ap 0.0001037
  LUNO+3 :   26 Ap 0.0000942

Computation Completed

Properties will be evaluated at   0.000000,   0.000000,   0.000000 [a0]

Properties computed using the SCF density matrix

  Nuclear Dipole Moment: [e a0]
     X:    -0.0000      Y:    -5.4028      Z:     0.0000

  Electronic Dipole Moment: [e a0]
     X:    -0.0002      Y:     5.3295      Z:     0.0000

  Dipole Moment: [e a0]
     X:    -0.0002      Y:    -0.0733      Z:     0.0000     Total:     0.0733

  Dipole Moment: [D]
     X:    -0.0006      Y:    -0.1863      Z:     0.0000     Total:     0.1863

*** tstop() called on compute405.bc4.acrc.priv at Tue Nov  2 11:05:05 2021
Module time:
	user time   =     594.96 seconds =       9.92 minutes
	system time =      24.75 seconds =       0.41 minutes
	total time  =         33 seconds =       0.55 minutes
Total time:
	user time   =     594.96 seconds =       9.92 minutes
	system time =      24.75 seconds =       0.41 minutes
	total time  =         33 seconds =       0.55 minutes

    Psi4 stopped on: Tuesday, 02 November 2021 11:05AM
    Psi4 wall time for execution: 0:00:33.23

*** Psi4 exiting successfully. Buy a developer a beer!
