                               Psi4 1.4.1 release

  ==> Input File <==

--------------------------------------------------------------------------
memory 144 GB

molecule {
2 2
Ag      -0.000000    1.374598    1.108828
Ag      -0.000000   -1.374598    1.108828
Ag      -1.374988    0.000000   -1.132689
Ag       1.374988   -0.000000   -1.132689
H        0.000000    0.000000    2.242952
 }

set reference uks
set basis Def2-TZVPPD

energy("GAM")
--------------------------------------------------------------------------

    Molecular point group: c2v

    Geometry (in Angstrom), charge = 2, multiplicity = 2:

       Center              X                  Y                   Z               Mass
    ------------   -----------------  -----------------  -----------------  -----------------
         AG          -0.000000000000     1.374598000000     1.115456639148   106.905091600000
         AG           0.000000000000    -1.374598000000     1.115456639148   106.905091600000
         AG          -1.374988000000    -0.000000000000    -1.126060360852   106.905091600000
         AG           1.374988000000     0.000000000000    -1.126060360852   106.905091600000
         H           -0.000000000000     0.000000000000     2.249580639148     1.007825032230

  Charge       = 2
  Multiplicity = 2
  Basis Set: DEF2-TZVPPD
    Blend: DEF2-TZVPPD
  Basis Set: (DEF2-TZVPPD AUX)
    Blend: DEF2-UNIVERSAL-JKFIT

    Orbital Energies [Eh]
    ---------------------

    Alpha Occupied:

       1A1    -3.975952     1B2    -3.975761     2A1    -3.955420
       1B1    -3.955232     3A1    -2.610976     2B2    -2.609052
       4A1    -2.605903     3B2    -2.604985     2B1    -2.602383
       1A2    -2.602158     5A1    -2.588504     3B1    -2.586421
       6A1    -2.585701     4B2    -2.585256     4B1    -2.585099
       2A2    -2.585041     7A1    -0.752776     8A1    -0.704765
       9A1    -0.685963     5B1    -0.685802     5B2    -0.680510
      10A1    -0.674620     3A2    -0.673349     6B1    -0.673119
       6B2    -0.667751     7B2    -0.657536     4A2    -0.656310
      11A1    -0.653929     8B2    -0.653529    12A1    -0.651597
       7B1    -0.645812     9B2    -0.641921     5A2    -0.641142
       8B1    -0.639170     6A2    -0.637438     9B1    -0.631033
      13A1    -0.623888    14A1    -0.539551

    Alpha Virtual:

      10B2    -0.467114    10B1    -0.459700    15A1    -0.409604
      16A1    -0.347632    11B2    -0.347507    11B1    -0.342677
      17A1    -0.331414     7A2    -0.317541    12B2    -0.216473
      12B1    -0.212010    18A1    -0.210067     8A2    -0.209829
      19A1    -0.195150    13B2    -0.190478    13B1    -0.183916
      20A1    -0.162921    21A1    -0.128147    14B1    -0.118830
      22A1    -0.116847    14B2    -0.112995    15B1    -0.104205
      23A1    -0.096734     9A2    -0.095768    15B2    -0.094903
      24A1    -0.065958    16B1    -0.056814    16B2    -0.051632
      25A1    -0.035603    10A2    -0.030149    17B1    -0.027699
      17B2    -0.019651    18B1    -0.001138    18B2     0.005767
      26A1     0.014458    27A1     0.050143    19B1     0.062805
      19B2     0.078561    11A2     0.099473    28A1     0.145994
      29A1     0.151274    12A2     0.160578    20B2     0.197303
      30A1     0.200920    20B1     0.205810    31A1     0.237206
      13A2     0.242059    21B1     0.243400    32A1     0.254363
      21B2     0.262109    22B1     0.313892    22B2     0.324146
      14A2     0.329847    23B2     0.339909    23B1     0.344153
      33A1     0.368948    24B1     0.488390    34A1     0.630911
      24B2     0.641917    35A1     1.066256    36A1     1.091276
      15A2     1.111433    25B2     1.117011    25B1     1.119048
      16A2     1.123411    26B1     1.125914    37A1     1.128859
      26B2     1.130519    38A1     1.142380    27B2     1.143161
      39A1     1.145197    17A2     1.147795    40A1     1.151106
      18A2     1.156533    27B1     1.158547    41A1     1.161039
      28B2     1.161898    28B1     1.163682    29B2     1.165726
      29B1     1.176227    19A2     1.178908    20A2     1.190125
      30B2     1.213460    30B1     1.223757    31B1     1.227745
      31B2     1.228792    32B1     1.241685    42A1     1.261837
      43A1     1.303376    21A2     1.305372    32B2     1.316131
      33B1     1.319767    44A1     1.321528    45A1     1.338922
      22A2     1.408595    33B2     1.431812    46A1     1.437272
      34B1     1.461947    34B2     1.537783    47A1     1.565527
      23A2     1.643678    35B2     1.647498    48A1     1.649575
      35B1     1.654888    24A2     1.669484    49A1     1.690595
      36B2     1.702983    50A1     1.707601    36B1     1.716764
      25A2     1.725262    37B2     1.725691    51A1     1.739398
      37B1     1.741848    38B2     1.761705    38B1     1.778137
      39B1     1.781502    26A2     1.783740    39B2     1.835115
      52A1     1.849276    53A1     2.070352    40B2     2.168194
      40B1     2.175501    54A1     2.258527    55A1     2.405749
      41B1     2.872831    27A2     2.878284    56A1     2.933174
      57A1     3.220855    41B2     3.298195    42B1     3.400756
      58A1     3.748102    42B2     3.870460    28A2     4.267929
      59A1     4.269492    43B1     4.277337    43B2     4.277818
      60A1     4.287231    44B2     4.289008    61A1     4.289680
      44B1     4.299350    29A2     4.301632    45B1     4.309701
      45B2     4.311678    62A1     4.312660    30A2     4.320803
      46B2     4.326510    63A1     4.326729    46B1     4.342506
      31A2     4.356362    64A1     4.361009    32A2     4.390681
      47B1     4.394754    33A2     4.412193    47B2     4.443593
      48B1     4.456130    48B2     4.497514    65A1     4.499548
      49B1     4.506869    49B2     4.690928    66A1     4.696128
      34A2     5.025320    50B2     5.027535    67A1     5.028186
      50B1     5.028237    68A1     5.028511    35A2     5.028799
      51B2     5.029730    51B1     5.029837    36A2     5.030058
      52B2     5.030064    69A1     5.031134    52B1     5.033817
      53B2     5.039919    37A2     5.042383    53B1     5.042886
      70A1     5.042938    71A1     5.043368    54B2     5.043644
      54B1     5.043795    38A2     5.044055    55B1     5.044130
      55B2     5.044606    72A1     5.044731    39A2     5.044832
      56B1     5.045058    40A2     5.045364    56B2     5.045392
      73A1     5.045627    74A1     5.050655    57B1     5.051606
      57B2     5.053777    41A2     5.055514    58B1     5.078443
      75A1     5.106135    76A1     5.291146    58B2     5.391459
      77A1    32.985750    59B1    33.286768    78A1    33.307915
      59B2    33.335728    79A1   110.406151    60B1   110.506889
      80A1   110.507895    60B2   110.512171

    Beta Occupied:

       1A1    -3.972645     1B2    -3.972453     2A1    -3.955301
       1B1    -3.955115     3A1    -2.606005     2B2    -2.603943
       4A1    -2.602833     3B2    -2.602034     2B1    -2.600794
       1A2    -2.600567     5A1    -2.587827     3B1    -2.586037
       6A1    -2.585545     4B2    -2.585273     2A2    -2.585065
       4B1    -2.584696     7A1    -0.735650     8A1    -0.701555
       5B1    -0.683780     9A1    -0.682056     5B2    -0.676440
      10A1    -0.671165     3A2    -0.670703     6B1    -0.670439
       6B2    -0.662553     7B2    -0.654621     4A2    -0.654377
      11A1    -0.651479     8B2    -0.651025    12A1    -0.648652
       7B1    -0.643433     5A2    -0.639191     9B2    -0.638703
       8B1    -0.637554     6A2    -0.635771     9B1    -0.629192
      13A1    -0.615418

    Beta Virtual:

      14A1    -0.522989    10B2    -0.464435    10B1    -0.458003
      15A1    -0.401845    16A1    -0.349995    11B2    -0.344713
      11B1    -0.343980    17A1    -0.329696     7A2    -0.316972
      12B2    -0.217530    12B1    -0.213868     8A2    -0.211364
      18A1    -0.208173    19A1    -0.190811    13B2    -0.183389
      13B1    -0.181454    20A1    -0.168768    14B1    -0.122644
      21A1    -0.117942    22A1    -0.105759    14B2    -0.101031
      15B2    -0.090456    15B1    -0.086854    23A1    -0.086586
       9A2    -0.082929    24A1    -0.066293    16B1    -0.054883
      16B2    -0.025054    25A1    -0.011368    10A2    -0.010314
      17B1    -0.009038    17B2    -0.005140    18B2     0.005820
      18B1     0.009207    26A1     0.027730    27A1     0.053847
      19B1     0.061539    19B2     0.073616    11A2     0.101131
      28A1     0.149436    12A2     0.162077    29A1     0.166198
      20B2     0.200776    20B1     0.204935    30A1     0.209186
      31A1     0.237644    21B1     0.240552    13A2     0.245167
      21B2     0.258318    32A1     0.261007    22B1     0.324337
      14A2     0.332064    22B2     0.332393    23B2     0.344888
      23B1     0.349053    33A1     0.376045    24B1     0.509144
      34A1     0.642927    24B2     0.660103    35A1     1.070523
      36A1     1.094293    15A2     1.115017    25B1     1.120796
      25B2     1.120862    16A2     1.125702    26B1     1.127214
      37A1     1.132121    26B2     1.133020    38A1     1.145967
      27B2     1.145996    39A1     1.148588    17A2     1.149658
      40A1     1.154306    18A2     1.159803    27B1     1.162103
      41A1     1.164655    28B2     1.164851    28B1     1.167106
      29B2     1.168174    29B1     1.178485    19A2     1.181377
      20A2     1.192839    30B2     1.215644    30B1     1.223713
      31B2     1.232558    31B1     1.235914    32B1     1.243751
      42A1     1.266839    43A1     1.305104    21A2     1.307801
      33B1     1.320842    32B2     1.321427    44A1     1.324394
      45A1     1.352546    22A2     1.410578    33B2     1.441417
      46A1     1.444578    34B1     1.463531    34B2     1.542891
      47A1     1.568125    23A2     1.644378    35B2     1.649080
      48A1     1.650764    35B1     1.654167    24A2     1.668069
      49A1     1.695224    36B2     1.703645    50A1     1.709064
      36B1     1.717973    25A2     1.723869    37B2     1.730619
      37B1     1.741917    51A1     1.746444    38B2     1.765079
      38B1     1.778175    39B1     1.781488    26A2     1.783697
      39B2     1.840636    52A1     1.855364    53A1     2.076576
      40B2     2.173725    40B1     2.179616    54A1     2.265134
      55A1     2.447491    41B1     2.908796    27A2     2.915035
      56A1     2.969134    57A1     3.258046    41B2     3.328719
      42B1     3.457982    58A1     3.798610    42B2     3.913293
      28A2     4.269725    59A1     4.271295    43B1     4.279007
      43B2     4.279827    60A1     4.288976    44B2     4.290963
      61A1     4.291677    44B1     4.300848    29A2     4.302993
      45B1     4.311064    45B2     4.313077    62A1     4.314603
      30A2     4.322628    63A1     4.328193    46B2     4.330440
      46B1     4.344370    31A2     4.358191    64A1     4.363656
      32A2     4.396093    47B1     4.397851    33A2     4.413757
      47B2     4.445535    48B1     4.461071    48B2     4.500775
      65A1     4.505700    49B1     4.508242    49B2     4.699444
      66A1     4.704474    34A2     5.028136    67A1     5.029083
      50B1     5.029206    50B2     5.029290    35A2     5.029843
      68A1     5.030816    51B1     5.031311    51B2     5.031723
      36A2     5.032249    52B2     5.032543    69A1     5.033983
      52B1     5.036572    37A2     5.042762    70A1     5.043027
      53B1     5.043255    53B2     5.043327    71A1     5.043774
      38A2     5.044244    54B2     5.044423    54B1     5.044580
      55B1     5.044744    55B2     5.044766    39A2     5.045140
      72A1     5.045276    56B1     5.045583    40A2     5.046144
      56B2     5.046479    73A1     5.046555    74A1     5.051201
      57B1     5.052332    57B2     5.054613    41A2     5.059678
      58B1     5.082964    75A1     5.111352    76A1     5.297524
      58B2     5.400017    77A1    32.987282    59B1    33.287793
      78A1    33.309472    59B2    33.337829    79A1   110.403875
      80A1   110.506668    60B2   110.506909    60B1   110.508668

    Final Occupation by Irrep:
             A1    A2    B1    B2
    DOCC [    13,    6,    9,    9 ]
    SOCC [     1,    0,    0,    0 ]

  @DF-UKS Final Energy:  -590.32770495206682

   => Energetics <=

    Nuclear Repulsion Energy =            413.2776657412570103
    One-Electron Energy =               -1844.2157689706050405
    Two-Electron Energy =                 899.8680244808085718
    DFT Exchange-Correlation Energy =     -59.2576262035275576
    Empirical Dispersion Energy =           0.0000000000000000
    VV10 Nonlocal Energy =                  0.0000000000000000
    Total Energy =                       -590.3277049520671653

  UHF NO Occupations:
  HONO-2 :    9 B2 1.9998463
  HONO-1 :   13 A1 1.9987375
  HONO-0 :   14 A1 1.0000000
  LUNO+0 :   15 A1 0.0012625
  LUNO+1 :   10 B2 0.0001537
  LUNO+2 :   16 A1 0.0001246
  LUNO+3 :   10 B1 0.0000964

Computation Completed

Properties will be evaluated at   0.000000,   0.000000,   0.000000 [a0]

Properties computed using the SCF density matrix

  Nuclear Dipole Moment: [e a0]
     X:    -0.0000      Y:    -0.0000      Z:     3.4896

  Electronic Dipole Moment: [e a0]
     X:     0.0000      Y:     0.0000      Z:    -3.5936

  Dipole Moment: [e a0]
     X:    -0.0000      Y:    -0.0000      Z:    -0.1039     Total:     0.1039

  Dipole Moment: [D]
     X:    -0.0000      Y:    -0.0000      Z:    -0.2641     Total:     0.2641

*** tstop() called on compute415.bc4.acrc.priv at Tue Nov  2 11:05:09 2021
Module time:
	user time   =     595.15 seconds =       9.92 minutes
	system time =      24.94 seconds =       0.42 minutes
	total time  =         30 seconds =       0.50 minutes
Total time:
	user time   =     595.15 seconds =       9.92 minutes
	system time =      24.94 seconds =       0.42 minutes
	total time  =         30 seconds =       0.50 minutes

    Psi4 stopped on: Tuesday, 02 November 2021 11:05AM
    Psi4 wall time for execution: 0:00:30.52

*** Psi4 exiting successfully. Buy a developer a beer!
