                               Psi4 1.4.1 release

  ==> Input File <==

--------------------------------------------------------------------------
memory 144 GB

molecule {
2 1
Ag      -0.268639    1.507918    0.000000
Ag       1.705052   -0.492854   -0.000000
Ag      -0.647170   -0.911099    1.379441
Ag      -0.647170   -0.911099   -1.379441
N       -0.647170    3.675657    0.000000
H       -0.250844    4.149729    0.817426
H       -0.250844    4.149729   -0.817426
H       -1.645581    3.906275    0.000000
 }

set basis Def2-TZVPPD

energy("GAM")
--------------------------------------------------------------------------

    Molecular point group: cs

    Geometry (in Angstrom), charge = 2, multiplicity = 1:

       Center              X                  Y                   Z               Mass
    ------------   -----------------  -----------------  -----------------  -----------------
         AG          -0.277549184886     1.558553668839     0.000000000000   106.905091600000
         AG           1.696141815114    -0.442218331161     0.000000000000   106.905091600000
         AG          -0.656080184886    -0.860463331161     1.379441000000   106.905091600000
         AG          -0.656080184886    -0.860463331161    -1.379441000000   106.905091600000
         N           -0.656080184886     3.726292668839     0.000000000000    14.003074004430
         H           -0.259754184886     4.200364668839     0.817426000000     1.007825032230
         H           -0.259754184886     4.200364668839    -0.817426000000     1.007825032230
         H           -1.654491184886     3.956910668839     0.000000000000     1.007825032230

  Charge       = 2
  Multiplicity = 1
  Basis Set: DEF2-TZVPPD
    Blend: DEF2-TZVPPD
  Basis Set: (DEF2-TZVPPD AUX)
    Blend: DEF2-UNIVERSAL-JKFIT

    Orbital Energies [Eh]
    ---------------------

    Doubly Occupied:

       1Ap   -14.336642     2Ap    -3.929275     3Ap    -3.929008
       1App   -3.929003     4Ap    -3.917478     5Ap    -2.562846
       2App   -2.560697     6Ap    -2.560695     3App   -2.559193
       7Ap    -2.559191     8Ap    -2.559094     4App   -2.558473
       9Ap    -2.558429     5App   -2.558425    10Ap    -2.548328
      11Ap    -2.546785     6App   -2.546785    12Ap    -1.111433
       7App   -0.736600    13Ap    -0.736596    14Ap    -0.682557
      15Ap    -0.657105    16Ap    -0.650251     8App   -0.650240
       9App   -0.641039    17Ap    -0.641027    18Ap    -0.637421
      19Ap    -0.633319    10App   -0.628414    20Ap    -0.628404
      11App   -0.613964    12App   -0.613397    21Ap    -0.613384
      22Ap    -0.611607    13App   -0.611592    14App   -0.604537
      23Ap    -0.604525    15App   -0.598253    24Ap    -0.592379
      16App   -0.592357    25Ap    -0.571568    26Ap    -0.556734

  @DF-RKS Final Energy:  -646.44463576965984

   => Energetics <=

    Nuclear Repulsion Energy =            527.7252358253977036
    One-Electron Energy =               -2148.3369730180193073
    Two-Electron Energy =                1041.1414899328792671
    DFT Exchange-Correlation Energy =     -66.9743885099174605
    Empirical Dispersion Energy =           0.0000000000000000
    VV10 Nonlocal Energy =                  0.0000000000000000
    Total Energy =                       -646.4446357696598398

  Dipole Moment: [D]
     X:    -0.8533      Y:     4.8722      Z:    -0.0000     Total:     4.9463

*** Psi4 exiting successfully. Buy a developer a beer!
