                               Psi4 1.4.1 release

  ==> Input File <==

--------------------------------------------------------------------------
memory 144 GB

molecule {
2 1
Ag       0.000000    1.593354   -0.403942
Ag       1.379885   -0.796677   -0.403942
Ag      -1.379885   -0.796677   -0.403942
Ag       0.000000    0.000000    1.894943
N        0.000000    0.000000   -3.082630
H        0.808649    0.466874   -3.509356
H       -0.000000   -0.933748   -3.509356
H       -0.808649    0.466874   -3.509356
 }

set basis Def2-TZVPPD

energy("GAM")
--------------------------------------------------------------------------

    Molecular point group: cs

    Geometry (in Angstrom), charge = 2, multiplicity = 1:

       Center              X                  Y                   Z               Mass
    ------------   -----------------  -----------------  -----------------  -----------------
         AG          -1.593354000000     0.447239138241     0.000000000000   106.905091600000
         AG           0.796677000000     0.447239138241     1.379885000000   106.905091600000
         AG           0.796677000000     0.447239138241    -1.379885000000   106.905091600000
         AG           0.000000000000    -1.851645861759     0.000000000000   106.905091600000
         N            0.000000000000     3.125927138241     0.000000000000    14.003074004430
         H           -0.466874000000     3.552653138241     0.808649000000     1.007825032230
         H            0.933748000000     3.552653138241     0.000000000000     1.007825032230
         H           -0.466874000000     3.552653138241    -0.808649000000     1.007825032230

  Charge       = 2
  Multiplicity = 1
  Basis Set: DEF2-TZVPPD
    Blend: DEF2-TZVPPD
  Basis Set: (DEF2-TZVPPD AUX)
    Blend: DEF2-UNIVERSAL-JKFIT

    Orbital Energies [Eh]
    ---------------------

    Doubly Occupied:

       1Ap   -14.317286     2Ap    -3.934159     3Ap    -3.933895
       1App   -3.933883     4Ap    -3.927771     5Ap    -2.567932
       2App   -2.565952     6Ap    -2.565952     7Ap    -2.564525
       3App   -2.564524     4App   -2.563988     8Ap    -2.563612
       9Ap    -2.562805     5App   -2.562796    10Ap    -2.559372
       6App   -2.557405    11Ap    -2.557405    12Ap    -1.095859
       7App   -0.719668    13Ap    -0.719662    14Ap    -0.681867
      15Ap    -0.659709    16Ap    -0.657201     8App   -0.657185
       9App   -0.649014    17Ap    -0.649011    18Ap    -0.640158
      10App   -0.635262    19Ap    -0.635251    11App   -0.619385
      20Ap    -0.618590    12App   -0.618582    21Ap    -0.616558
      13App   -0.616557    22Ap    -0.614813    14App   -0.614778
      23Ap    -0.614775    15App   -0.603782    24Ap    -0.601583
      16App   -0.601571    25Ap    -0.593300    26Ap    -0.541086

  @DF-RKS Final Energy:  -646.40736057695972

   => Energetics <=

    Nuclear Repulsion Energy =            537.0150910960845749
    One-Electron Energy =               -2166.5550963266668987
    Two-Electron Energy =                1050.1160744950198023
    DFT Exchange-Correlation Energy =     -66.9834298413972817
    Empirical Dispersion Energy =           0.0000000000000000
    VV10 Nonlocal Energy =                  0.0000000000000000
    Total Energy =                       -646.4073605769597179

  Dipole Moment: [D]
     X:     0.0013      Y:     4.2895      Z:    -0.0000     Total:     4.2895

*** Psi4 exiting successfully. Buy a developer a beer!
