                               Psi4 1.4.1 release

  ==> Input File <==

--------------------------------------------------------------------------
memory 144 GB

molecule {
0 2
Au       0.000000    0.000000    0.000000
 }

set reference uks
set basis Def2-TZVPPD

energy("GAM")
--------------------------------------------------------------------------

    Molecular point group: d2h
    Geometry (in Angstrom), charge = 0, multiplicity = 2:

       Center              X                  Y                   Z               Mass
    ------------   -----------------  -----------------  -----------------  -----------------
         AU           0.000000000000     0.000000000000     0.000000000000   196.966568790000

  Charge       = 0
  Multiplicity = 2
  Basis Set: DEF2-TZVPPD
    Blend: DEF2-TZVPPD
  Basis Set: (DEF2-TZVPPD AUX)
    Blend: DEF2-UNIVERSAL-JKFIT

    Orbital Energies [Eh]
    ---------------------

    Alpha Occupied:

       1Ag    -3.990320     1B3u   -2.209539     1B2u   -2.209539
       1B1u   -2.209539     2Ag    -0.259752     1B1g   -0.259752
       1B2g   -0.259752     1B3g   -0.259752     3Ag    -0.259752
       4Ag    -0.209069

    Alpha Virtual:

       2B3u   -0.018475     2B2u   -0.018475     2B1u   -0.018475
       5Ag     0.148043     3B3u    0.179356     3B1u    0.179356
       3B2u    0.179356     6Ag     0.273136     2B1g    0.273136
       2B2g    0.273136     2B3g    0.273136     7Ag     0.273136
       4B3u    0.999829     4B2u    0.999829     4B1u    0.999829
       5B3u    1.079455     5B2u    1.079455     5B1u    1.079455
       6B3u    1.079455     1Au     1.079455     6B2u    1.079455
       6B1u    1.079455     8Ag     1.426123     3B1g    1.426123
       3B2g    1.426123     3B3g    1.426123     9Ag     1.426123
      10Ag     1.941414     7B3u    3.450917     7B2u    3.450917
       7B1u    3.450917     2Au     3.450917     8B3u    3.450917
       8B2u    3.450917     8B1u    3.450917    11Ag     4.010009
       4B1g    4.010009     4B2g    4.010009     4B3g    4.010009
      12Ag     4.010009     5B1g    4.010009     5B2g    4.010009
       5B3g    4.010009    13Ag     4.010009     9B3u   27.219505
       9B2u   27.219505     9B1u   27.219505    14Ag    43.905606
      15Ag   205.001316

    Beta Occupied:

       1Ag    -3.989949     1B3u   -2.208154     1B2u   -2.208154
       1B1u   -2.208154     2Ag    -0.248676     1B1g   -0.248676
       1B2g   -0.248676     1B3g   -0.248676     3Ag    -0.248676

    Beta Virtual:

       4Ag    -0.189429     2B3u   -0.019203     2B2u   -0.019203
       2B1u   -0.019203     5Ag     0.125589     6Ag     0.240410
       2B3g    0.240410     2B2g    0.240410     2B1g    0.240410
       7Ag     0.240410     3B3u    0.274657     3B2u    0.274657
       3B1u    0.274657     4B3u    1.028946     4B2u    1.028946
       4B1u    1.028946     5B2u    1.104365     5B3u    1.104365
       5B1u    1.104365     1Au     1.104365     6B2u    1.104365
       6B1u    1.104365     6B3u    1.104365     3B3g    1.423702
       8Ag     1.423702     3B1g    1.423702     3B2g    1.423702
       9Ag     1.423702    10Ag     1.965107     7B3u    3.459801
       7B2u    3.459801     7B1u    3.459801     2Au     3.459801
       8B3u    3.459801     8B2u    3.459801     8B1u    3.459801
      11Ag     4.018059     4B1g    4.018059     4B2g    4.018059
       4B3g    4.018059    12Ag     4.018059     5B1g    4.018059
       5B2g    4.018059     5B3g    4.018059    13Ag     4.018059
       9B3u   27.225811     9B2u   27.225811     9B1u   27.225811
      14Ag    43.906163    15Ag   205.005370

    Final Occupation by Irrep:
             Ag   B1g   B2g   B3g    Au   B1u   B2u   B3u
    DOCC [     3,    1,    1,    1,    0,    1,    1,    1 ]
    SOCC [     1,    0,    0,    0,    0,    0,    0,    0 ]

  @DF-UKS Final Energy:  -136.22182574063592

   => Energetics <=

    Nuclear Repulsion Energy =              0.0000000000000000
    One-Electron Energy =                -239.2216076213412066
    Two-Electron Energy =                 116.4239020220562963
    DFT Exchange-Correlation Energy =     -13.4241201413510165
    Empirical Dispersion Energy =           0.0000000000000000
    VV10 Nonlocal Energy =                  0.0000000000000000
    Total Energy =                       -136.2218257406359214

  UHF NO Occupations:
  HONO-2 :    1B2g 1.9999238
  HONO-1 :    3 Ag 1.9999238
  HONO-0 :    4 Ag 1.0000000
  LUNO+0 :    5 Ag 0.0000762
  LUNO+1 :    2B2g 0.0000762
  LUNO+2 :    2B1g 0.0000762
  LUNO+3 :    6 Ag 0.0000762

Computation Completed

Properties will be evaluated at   0.000000,   0.000000,   0.000000 [a0]

Properties computed using the SCF density matrix

  Nuclear Dipole Moment: [e a0]
     X:     0.0000      Y:     0.0000      Z:     0.0000

  Electronic Dipole Moment: [e a0]
     X:     0.0000      Y:     0.0000      Z:     0.0000

  Dipole Moment: [e a0]
     X:     0.0000      Y:     0.0000      Z:     0.0000     Total:     0.0000

  Dipole Moment: [D]
     X:     0.0000      Y:     0.0000      Z:     0.0000     Total:     0.0000

*** tstop() called on compute495.bc4.acrc.priv at Tue Nov  2 16:10:34 2021
Module time:
	user time   =      56.19 seconds =       0.94 minutes
	system time =       2.59 seconds =       0.04 minutes
	total time  =          4 seconds =       0.07 minutes
Total time:
	user time   =      56.19 seconds =       0.94 minutes
	system time =       2.59 seconds =       0.04 minutes
	total time  =          4 seconds =       0.07 minutes

    Psi4 stopped on: Tuesday, 02 November 2021 04:10PM
    Psi4 wall time for execution: 0:00:03.68

*** Psi4 exiting successfully. Buy a developer a beer!
