                               Psi4 1.4.1 release

  ==> Input File <==

--------------------------------------------------------------------------
memory 120 GB

molecule {
0 2
Au       0.000000    1.515176   -0.000000
Au       1.312181   -0.757588    0.000000
Au      -1.312181   -0.757588   -0.000000
 }

set reference uks
set basis Def2-TZVPPD
set mom_start 10

energy("GAM")
--------------------------------------------------------------------------

    Molecular point group: c2v

    Geometry (in Angstrom), charge = 0, multiplicity = 2:

       Center              X                  Y                   Z               Mass
    ------------   -----------------  -----------------  -----------------  -----------------
         AU           0.000000000000     0.000000000000     1.515176000000   196.966568790000
         AU           1.312181000000     0.000000000000    -0.757588000000   196.966568790000
         AU          -1.312181000000    -0.000000000000    -0.757588000000   196.966568790000

  Charge       = 0
  Multiplicity = 2
  Basis Set: DEF2-TZVPPD
    Blend: DEF2-TZVPPD
  Basis Set: (DEF2-TZVPPD AUX)
    Blend: DEF2-UNIVERSAL-JKFIT

    Orbital Energies [Eh]
    ---------------------

    Alpha Occupied:

       1A1    -4.017233     1B1    -4.016928     2A1    -4.004811
       3A1    -2.243614     2B1    -2.238176     4A1    -2.235428
       3B1    -2.233476     1B2    -2.231257     1A2    -2.230696
       5A1    -2.226467     4B1    -2.222833     2B2    -2.216169
       6A1    -0.359867     7A1    -0.325064     5B1    -0.319675
       3B2    -0.312603     8A1    -0.295331     4B2    -0.287519
       2A2    -0.283157     6B1    -0.262660     9A1    -0.262237
       7B1    -0.258358     3A2    -0.256670    10A1    -0.253975
       4A2    -0.248353     5B2    -0.247383    11A1    -0.247262
       8B1    -0.231386    12A1    -0.157754

    Alpha Virtual:

       9B1    -0.162310     6B2    -0.061664    13A1    -0.036055
      14A1    -0.023180    10B1    -0.020710     5A2     0.021297
       7B2     0.026743    11B1     0.068206    15A1     0.075890
      12B1     0.090070    16A1     0.135468    17A1     0.153265
       8B2     0.159072    13B1     0.179040    18A1     0.179417
       6A2     0.209288     9B2     0.217161    14B1     0.222494
      19A1     0.227244    20A1     0.252081    10B2     0.273426
      15B1     0.273871     7A2     0.276406    21A1     0.283425
      16B1     0.283996    11B2     0.303160    17B1     0.346063
      22A1     0.348058     8A2     0.376029    12B2     0.415967
       9A2     0.416489    23A1     0.427750    18B1     0.428204
      24A1     0.441937    19B1     0.530735    20B1     0.532376
      25A1     0.532383    26A1     0.780704    27A1     0.869516
      21B1     0.869882    28A1     0.874616    13B2     0.889435
      14B2     0.959481    10A2     0.963146    15B2     1.019544
      11A2     1.022842    16B2     1.028365    29A1     1.029868
      22B1     1.031404    17B2     1.035577    30A1     1.070285
      23B1     1.072744    24B1     1.090994    12A2     1.113471
      18B2     1.121997    25B1     1.161917    26B1     1.178001
      31A1     1.180445    13A2     1.269993    27B1     1.279679
      32A1     1.281344    33A1     1.284325    14A2     1.304866
      19B2     1.309609    28B1     1.326484    34A1     1.330052
      29B1     1.380406    20B2     1.388749    35A1     1.390510
      21B2     1.398284    15A2     1.403361    36A1     1.431763
      30B1     1.433134    37A1     1.453966    16A2     1.514835
      31B1     1.525316    38A1     1.528748    17A2     1.578109
      22B2     1.582717    32B1     1.774855    39A1     1.778565
      33B1     1.984906    40A1     2.022067    34B1     2.528352
      41A1     2.534632    42A1     3.302911    23B2     3.336585
      24B2     3.355578    18A2     3.359927    25B2     3.399833
      43A1     3.413834    35B1     3.421072    19A2     3.473722
      26B2     3.482433    36B1     3.496118    44A1     3.502573
      37B1     3.508656    45A1     3.511276    20A2     3.629321
      38B1     3.650633    21A2     3.652808    46A1     3.654850
      27B2     3.658092    39B1     3.763228    47A1     3.765373
      40B1     3.828666    41B1     3.982667    48A1     3.982908
      28B2     3.986352    49A1     3.986558    22A2     3.988628
      29B2     3.989642    50A1     3.993210    23A2     3.995484
      30B2     3.996816    42B1     3.997356    51A1     3.997388
      24A2     3.997932    31B2     3.998021    43B1     3.998548
      52A1     3.999793    32B2     4.006150    44B1     4.010178
      25A2     4.012476    53A1     4.012588    26A2     4.036965
      27A2     4.046800    33B2     4.048940    45B1     4.052588
      54A1     4.055935    46B1     4.188484    55A1     4.192697
      47B1     4.304406    34B2    27.137243    56A1    27.311191
      48B1    27.317271    57A1    27.422560    28A2    27.511837
      35B2    27.521148    49B1    28.995878    50B1    29.642830
      58A1    29.649142    59A1    43.967567    51B1    44.484650
      60A1    44.492554    61A1   205.014251    52B1   205.237235
      62A1   205.245300

    Beta Occupied:

       1A1    -4.016369     1B1    -4.016064     2A1    -4.003218
       3A1    -2.242492     2B1    -2.236858     4A1    -2.234068
       3B1    -2.232394     1B2    -2.230685     1A2    -2.230125
       5A1    -2.223892     4B1    -2.220834     2B2    -2.214466
       6A1    -0.356084     7A1    -0.322401     5B1    -0.313264
       3B2    -0.310337     8A1    -0.291468     4B2    -0.285466
       2A2    -0.279615     6B1    -0.261047     9A1    -0.259505
       7B1    -0.256499     3A2    -0.256271    10A1    -0.248089
       4A2    -0.243852     5B2    -0.240994    11A1    -0.240501
       8B1    -0.225280

    Beta Virtual:

       9B1    -0.159484    12A1    -0.148758     6B2    -0.063927
      13A1    -0.057078    10B1    -0.031063    14A1    -0.030934
       7B2     0.010370     5A2     0.015539    15A1     0.044850
      11B1     0.049573    12B1     0.072219    16A1     0.127534
       8B2     0.152669    17A1     0.154425    18A1     0.162512
      13B1     0.174080    14B1     0.210268    19A1     0.212042
       6A2     0.212721     9B2     0.220300    20A1     0.253785
      10B2     0.276280     7A2     0.276545    15B1     0.282912
      16B1     0.301221    11B2     0.304805    21A1     0.308901
      17B1     0.345780    22A1     0.350999     8A2     0.377410
       9A2     0.417304    12B2     0.421586    23A1     0.430635
      18B1     0.431998    24A1     0.443087    19B1     0.533158
      20B1     0.533687    25A1     0.536052    26A1     0.787144
      27A1     0.873483    21B1     0.880935    28A1     0.883173
      13B2     0.893977    14B2     0.963013    10A2     0.970199
      15B2     1.023952    11A2     1.026950    22B1     1.034947
      16B2     1.035706    29A1     1.035913    17B2     1.045341
      30A1     1.077436    23B1     1.078069    24B1     1.101101
      12A2     1.116201    18B2     1.129972    25B1     1.169498
      26B1     1.183018    31A1     1.188226    13A2     1.274273
      27B1     1.282307    32A1     1.287392    33A1     1.294096
      14A2     1.306687    19B2     1.315039    28B1     1.329529
      34A1     1.334849    29B1     1.381545    20B2     1.388808
      35A1     1.393549    21B2     1.399675    15A2     1.404945
      36A1     1.430901    30B1     1.432943    37A1     1.454196
      16A2     1.513500    31B1     1.527313    38A1     1.528916
      17A2     1.577352    22B2     1.582847    32B1     1.774387
      39A1     1.779096    33B1     1.987875    40A1     2.024380
      34B1     2.530354    41A1     2.540747    42A1     3.306552
      23B2     3.338887    24B2     3.357692    18A2     3.363672
      25B2     3.401892    43A1     3.415372    35B1     3.423836
      19A2     3.475091    26B2     3.485954    36B1     3.498568
      44A1     3.503210    37B1     3.512853    45A1     3.515596
      20A2     3.632222    38B1     3.653254    21A2     3.655327
      46A1     3.660788    27B2     3.662954    39B1     3.765965
      47A1     3.770616    40B1     3.833254    48A1     3.984076
      28B2     3.986668    41B1     3.986947    49A1     3.988990
      29B2     3.990620    22A2     3.992032    50A1     3.996143
      23A2     3.997003    30B2     3.998079    42B1     3.998790
      51A1     3.999677    24A2     4.000389    43B1     4.001374
      31B2     4.002530    52A1     4.004344    32B2     4.011909
      44B1     4.013879    25A2     4.014881    53A1     4.015031
      26A2     4.037067    27A2     4.051416    33B2     4.053398
      45B1     4.056130    54A1     4.061238    46B1     4.190318
      55A1     4.196801    47B1     4.307610    34B2    27.138465
      56A1    27.312930    48B1    27.320656    57A1    27.425591
      28A2    27.512421    35B2    27.523324    49B1    28.997919
      50B1    29.643852    58A1    29.653475    59A1    43.967193
      51B1    44.484311    60A1    44.492002    61A1   205.016232
      52B1   205.238588    62A1   205.248057

    Final Occupation by Irrep:
             A1    A2    B1    B2
    DOCC [    11,    4,    8,    5 ]
    SOCC [     1,    0,    0,    0 ]

  @DF-UKS Final Energy:  -408.76818992865753

   => Energetics <=

    Nuclear Repulsion Energy =            218.3764813771755087
    One-Electron Energy =               -1153.3462738001096568
    Two-Electron Energy =                 566.4965922845519799
    DFT Exchange-Correlation Energy =     -40.2949897902753378
    Empirical Dispersion Energy =           0.0000000000000000
    VV10 Nonlocal Energy =                  0.0000000000000000
    Total Energy =                       -408.7681899286574776

  UHF NO Occupations:
  HONO-2 :   11 A1 1.9993267
  HONO-1 :    8 B1 1.9972669
  HONO-0 :   12 A1 1.0000000
  LUNO+0 :    9 B1 0.0027331
  LUNO+1 :   13 A1 0.0006733
  LUNO+2 :    6 B2 0.0001874
  LUNO+3 :   10 B1 0.0001805

Computation Completed

Properties will be evaluated at   0.000000,   0.000000,   0.000000 [a0]

Properties computed using the SCF density matrix

  Nuclear Dipole Moment: [e a0]
     X:    -0.0000      Y:    -0.0000      Z:    -0.0000

  Electronic Dipole Moment: [e a0]
     X:     0.0000      Y:     0.0000      Z:    -0.4449

  Dipole Moment: [e a0]
     X:    -0.0000      Y:    -0.0000      Z:    -0.4449     Total:     0.4449

  Dipole Moment: [D]
     X:    -0.0000      Y:    -0.0000      Z:    -1.1308     Total:     1.1308

*** tstop() called on bc4login3.bc4.acrc.priv at Fri Nov  5 10:38:43 2021
Module time:
	user time   =     171.98 seconds =       2.87 minutes
	system time =      19.70 seconds =       0.33 minutes
	total time  =         25 seconds =       0.42 minutes
Total time:
	user time   =     171.98 seconds =       2.87 minutes
	system time =      19.70 seconds =       0.33 minutes
	total time  =         25 seconds =       0.42 minutes

    Psi4 stopped on: Friday, 05 November 2021 10:38AM
    Psi4 wall time for execution: 0:00:24.67

*** Psi4 exiting successfully. Buy a developer a beer!
