                               Psi4 1.4.1 release

  ==> Input File <==

--------------------------------------------------------------------------
memory 120 GB

molecule {
2 1
Au       0.000000    1.548281   -0.453246
Au       1.340851   -0.774141   -0.453246
Au      -1.340851   -0.774141   -0.453246
Au       0.000000    0.000000    1.783664
N        0.000000    0.000000   -3.226055
H       -0.813891    0.469900   -3.635956
H        0.813891    0.469900   -3.635956
H       -0.000000   -0.939800   -3.635956
 }

set basis Def2-TZVPPD

energy("GAM")
--------------------------------------------------------------------------

    Molecular point group: cs

    Geometry (in Angstrom), charge = 2, multiplicity = 1:

       Center              X                  Y                   Z               Mass
    ------------   -----------------  -----------------  -----------------  -----------------
         AU          -1.548281244712     0.487202496432     0.000000000000   196.966568790000
         AU           0.774140755288     0.487202496432     1.340851000000   196.966568790000
         AU           0.774140755288     0.487202496432    -1.340851000000   196.966568790000
         AU          -0.000000244712    -1.749707503568     0.000000000000   196.966568790000
         N           -0.000000244712     3.260011496432     0.000000000000    14.003074004430
         H           -0.469900244712     3.669912496432    -0.813891000000     1.007825032230
         H           -0.469900244712     3.669912496432     0.813891000000     1.007825032230
         H            0.939799755288     3.669912496432     0.000000000000     1.007825032230

  Charge       = 2
  Multiplicity = 1
  Basis Set: DEF2-TZVPPD
    Blend: DEF2-TZVPPD
  Basis Set: (DEF2-TZVPPD AUX)
    Blend: DEF2-UNIVERSAL-JKFIT

    Orbital Energies [Eh]
    ---------------------

    Doubly Occupied:

       1Ap   -14.326162     2Ap    -4.369401     1App   -4.369070
       3Ap    -4.369065     4Ap    -4.362851     5Ap    -2.595955
       2App   -2.590934     6Ap    -2.590929     7Ap    -2.586703
       3App   -2.586267     8Ap    -2.586259     4App   -2.584382
       5App   -2.583935     9Ap    -2.583932    10Ap    -2.583191
       6App   -2.578249    11Ap    -2.578244    12Ap    -1.101164
      13Ap    -0.733198    14Ap    -0.727174     7App   -0.727173
      15Ap    -0.682721    16Ap    -0.679203     8App   -0.679199
       9App   -0.661870    17Ap    -0.661862    18Ap    -0.645559
      10App   -0.639655    19Ap    -0.639642    20Ap    -0.634892
      11App   -0.610471    21Ap    -0.610463    12App   -0.609169
      13App   -0.607775    22Ap    -0.607747    23Ap    -0.606889
      14App   -0.605396    24Ap    -0.605388    15App   -0.585347
      16App   -0.583922    25Ap    -0.583920    26Ap    -0.556141

  @DF-RKS Final Energy:  -600.97671758581851

   => Energetics <=

    Nuclear Repulsion Energy =            547.1140380717746439
    One-Electron Energy =               -2095.3906290011518649
    Two-Electron Energy =                1008.6703325300418328
    DFT Exchange-Correlation Energy =     -61.3704591864832878
    Empirical Dispersion Energy =           0.0000000000000000
    VV10 Nonlocal Energy =                  0.0000000000000000
    Total Energy =                       -600.9767175858185055

  Dipole Moment: [D]
     X:     0.0001      Y:     5.2847      Z:     0.0000     Total:     5.2847

*** Psi4 exiting successfully. Buy a developer a beer!
