                               Psi4 1.4.1 release

  ==> Input File <==

--------------------------------------------------------------------------
memory 120 GB

molecule {
2 1
Au      -0.274490    1.572639   -0.000000
Au       1.635934   -0.418177    0.000000
Au      -0.639028   -0.815642    1.333593
Au      -0.639028   -0.815642   -1.333593
N       -0.639028    3.654013   -0.000000
H       -0.235750    4.112347    0.824759
H       -0.235750    4.112347   -0.824759
H       -1.642949    3.866239   -0.000000
 }

set basis Def2-TZVPPD

energy("GAM")
--------------------------------------------------------------------------

    Molecular point group: cs

    Geometry (in Angstrom), charge = 2, multiplicity = 1:

       Center              X                  Y                   Z               Mass
    ------------   -----------------  -----------------  -----------------  -----------------
         AU          -0.281131004952     1.610613041947     0.000000000000   196.966568790000
         AU           1.629292995048    -0.380202958053     0.000000000000   196.966568790000
         AU          -0.645669004952    -0.777667958053     1.333593000000   196.966568790000
         AU          -0.645669004952    -0.777667958053    -1.333593000000   196.966568790000
         N           -0.645669004952     3.691987041947     0.000000000000    14.003074004430
         H           -0.242391004952     4.150321041947     0.824759000000     1.007825032230
         H           -0.242391004952     4.150321041947    -0.824759000000     1.007825032230
         H           -1.649590004952     3.904213041947     0.000000000000     1.007825032230

  Charge       = 2
  Multiplicity = 1
  Basis Set: DEF2-TZVPPD
    Blend: DEF2-TZVPPD
  Basis Set: (DEF2-TZVPPD AUX)
    Blend: DEF2-UNIVERSAL-JKFIT

    Orbital Energies [Eh]
    ---------------------

    Doubly Occupied:

       1Ap   -14.380890     2Ap    -4.359219     3Ap    -4.358854
       1App   -4.358838     4Ap    -4.358158     5Ap    -2.587165
       6Ap    -2.583125     7Ap    -2.580964     2App   -2.580958
       3App   -2.575643     8Ap    -2.575624     9Ap    -2.574173
       4App   -2.573667    10Ap    -2.573563     5App   -2.573550
       6App   -2.570034    11Ap    -2.570034    12Ap    -1.149491
      13Ap    -0.775069     7App   -0.775060    14Ap    -0.738615
      15Ap    -0.689441     8App   -0.667492    16Ap    -0.667457
      17Ap    -0.659093    18Ap    -0.649889     9App   -0.649887
      19Ap    -0.633523    10App   -0.627917    20Ap    -0.627904
      21Ap    -0.617213    11App   -0.599787    22Ap    -0.599774
      12App   -0.597470    13App   -0.597456    23Ap    -0.597442
      14App   -0.595469    24Ap    -0.595465    15App   -0.574668
      25Ap    -0.574659    16App   -0.574203    26Ap    -0.566038

  @DF-RKS Final Energy:  -601.03678905803940

   => Energetics <=

    Nuclear Repulsion Energy =            541.9645184554937032
    One-Electron Energy =               -2085.3752841555260602
    Two-Electron Energy =                1003.7349551944016639
    DFT Exchange-Correlation Energy =     -61.3609785524088025
    Empirical Dispersion Energy =           0.0000000000000000
    VV10 Nonlocal Energy =                  0.0000000000000000
    Total Energy =                       -601.0367890580394032

  Dipole Moment: [D]
     X:    -1.2038      Y:     6.8800      Z:     0.0000     Total:     6.9845

*** Psi4 exiting successfully. Buy a developer a beer!
