                               Psi4 1.4.1 release

  ==> Input File <==

--------------------------------------------------------------------------
memory 120 GB

molecule {
2 1
Au      -0.000000   -0.000044    1.659420
Au      -1.354966    0.782292   -0.553161
Au       1.354966    0.782292   -0.553161
Au       0.000000   -1.564540   -0.553099
 }

set basis Def2-TZVPPD

energy("GAM")
--------------------------------------------------------------------------

    Molecular point group: cs

    Geometry (in Angstrom), charge = 2, multiplicity = 1:

       Center              X                  Y                   Z               Mass
    ------------   -----------------  -----------------  -----------------  -----------------
         AU           0.000044000000    -1.659420250000     0.000000000000   196.966568790000
         AU          -0.782292000000     0.553160750000    -1.354966000000   196.966568790000
         AU          -0.782292000000     0.553160750000     1.354966000000   196.966568790000
         AU           1.564540000000     0.553098750000     0.000000000000   196.966568790000

  Charge       = 2
  Multiplicity = 1
  Basis Set: DEF2-TZVPPD
    Blend: DEF2-TZVPPD
  Basis Set: (DEF2-TZVPPD AUX)
    Blend: DEF2-UNIVERSAL-JKFIT

    Orbital Energies [Eh]
    ---------------------

    Doubly Occupied:

       1Ap    -4.397412     2Ap    -4.397040     3Ap    -4.397035
       1App   -4.397032     4Ap    -2.624525     5Ap    -2.619143
       6Ap    -2.619140     2App   -2.619136     7Ap    -2.613791
       3App   -2.613786     8Ap    -2.612963     4App   -2.612959
       9Ap    -2.612957    10Ap    -2.611523     5App   -2.611521
       6App   -2.611516    11Ap    -0.760806    12Ap    -0.707932
       7App   -0.707924    13Ap    -0.707905    14Ap    -0.690598
       8App   -0.690591     9App   -0.669547    15Ap    -0.669543
      16Ap    -0.669540    17Ap    -0.655053    18Ap    -0.638095
      10App   -0.638090    19Ap    -0.638087    11App   -0.637058
      20Ap    -0.637056    12App   -0.637056    21Ap    -0.636008
      13App   -0.636008    14App   -0.613822    22Ap    -0.613819
      15App   -0.613819

  @DF-RKS Final Energy:  -544.35648268181933

   => Energetics <=

    Nuclear Repulsion Energy =            422.9698522073878166
    One-Electron Energy =               -1772.2705617850560884
    Two-Electron Energy =                 858.3015885559448179
    DFT Exchange-Correlation Energy =     -53.3573616600957550
    Empirical Dispersion Energy =           0.0000000000000000
    VV10 Nonlocal Energy =                  0.0000000000000000
    Total Energy =                       -544.3564826818193296

  Dipole Moment: [D]
     X:    -0.0002      Y:    -0.0001      Z:     0.0000     Total:     0.0002

*** Psi4 exiting successfully. Buy a developer a beer!
