                               Psi4 1.4.1 release

  ==> Input File <==

--------------------------------------------------------------------------
memory 144 GB

molecule {
0 1
Cu       0.000000    0.000000    0.048513
H        0.000000    0.000000   -1.406870
 }

set basis Def2-TZVPPD

energy("GAM")
--------------------------------------------------------------------------

    Molecular point group: c2v

    Geometry (in Angstrom), charge = 0, multiplicity = 1:

       Center              X                  Y                   Z               Mass
    ------------   -----------------  -----------------  -----------------  -----------------
         CU           0.000000000000     0.000000000000     0.022940734170    62.929597720000
         H            0.000000000000     0.000000000000    -1.432442265830     1.007825032230

  Charge       = 0
  Multiplicity = 1
  Basis Set: DEF2-TZVPPD
    Blend: DEF2-TZVPPD
  Basis Set: (DEF2-TZVPPD AUX)
    Blend: DEF2-UNIVERSAL-JKFIT

    Orbital Energies [Eh]
    ---------------------

    Doubly Occupied:

       1A1  -320.898156     2A1   -38.372718     3A1   -33.773063
       1B1   -33.769376     1B2   -33.769376     4A1    -4.140509
       5A1    -2.682938     2B2    -2.673406     2B1    -2.673406
       6A1    -0.294812     3B2    -0.224270     3B1    -0.224270
       7A1    -0.216923     1A2    -0.216923     8A1    -0.198346

  @DF-RKS Final Energy: -1642.02472936759682

   => Energetics <=

    Nuclear Repulsion Energy =             10.5443990409603536
    One-Electron Energy =               -2312.1140047621315716
    Two-Electron Energy =                 728.2413997943607455
    DFT Exchange-Correlation Energy =     -68.6965234407863932
    Empirical Dispersion Energy =           0.0000000000000000
    VV10 Nonlocal Energy =                  0.0000000000000000
    Total Energy =                      -1642.0247293675968194

  Dipole Moment: [D]
     X:     0.0000      Y:     0.0000      Z:     2.4313     Total:     2.4313

*** Psi4 exiting successfully. Buy a developer a beer!
