                               Psi4 1.4.1 release

  ==> Input File <==

--------------------------------------------------------------------------
memory 144 GB

molecule {
0 2
Cu       0.000000    0.000000    0.000000
 }

set reference uks
set basis Def2-TZVPPD

energy("GAM")
--------------------------------------------------------------------------

    Molecular point group: d2h
    Geometry (in Angstrom), charge = 0, multiplicity = 2:

       Center              X                  Y                   Z               Mass
    ------------   -----------------  -----------------  -----------------  -----------------
         CU           0.000000000000     0.000000000000     0.000000000000    62.929597720000

  Charge       = 0
  Multiplicity = 2
  Basis Set: DEF2-TZVPPD
    Blend: DEF2-TZVPPD
  Basis Set: (DEF2-TZVPPD AUX)
    Blend: DEF2-UNIVERSAL-JKFIT

    Orbital Energies [Eh]
    ---------------------

    Alpha Occupied:

       1Ag  -320.870386     2Ag   -38.337648     1B2u  -33.736536
       1B1u  -33.736536     1B3u  -33.736535     3Ag    -4.107841
       2B2u   -2.644929     2B1u   -2.644929     2B3u   -2.644929
       1B3g   -0.197566     1B2g   -0.197566     4Ag    -0.197566
       1B1g   -0.197566     5Ag    -0.197566     6Ag    -0.173439

    Alpha Virtual:

       3B2u   -0.024467     3B3u   -0.024467     3B1u   -0.024466
       7Ag     0.097832     4B3u    0.107081     4B1u    0.107081
       4B2u    0.107081     8Ag     0.173853     2B3g    0.173853
       2B1g    0.173853     2B2g    0.173853     9Ag     0.173853
       5B3u    0.624946     5B2u    0.624946     5B1u    0.624946
      10Ag     0.843051     3B1g    0.843051     3B2g    0.843051
       3B3g    0.843051    11Ag     0.843051    12Ag     2.824340
       6B3u    2.910423     6B2u    2.910423     6B1u    2.910423
       7B3u    3.367967     7B2u    3.367967     7B1u    3.367967
       1Au     3.367967     8B3u    3.367967     8B2u    3.367967
       8B1u    3.367967     4B1g    3.566958    13Ag     3.566958
       4B2g    3.566959     4B3g    3.566959    14Ag     3.566959
       5B3g   12.777423     5B2g   12.777423    15Ag    12.777423
       5B1g   12.777423    16Ag    12.777423     6B1g   12.777423
       6B3g   12.777423     6B2g   12.777423    17Ag    12.777423
       9B1u   12.910168     9B2u   12.910168     2Au    12.910168
       9B3u   12.910168    10B1u   12.910169    10B2u   12.910169
      10B3u   12.910169

    Beta Occupied:

       1Ag  -320.869146     2Ag   -38.339592     1B2u  -33.737718
       1B1u  -33.737718     1B3u  -33.737718     3Ag    -4.111175
       2B2u   -2.647744     2B3u   -2.647744     2B1u   -2.647744
       4Ag    -0.191454     1B1g   -0.191454     5Ag    -0.191454
       1B3g   -0.191454     1B2g   -0.191454

    Beta Virtual:

       6Ag    -0.162674     3B3u   -0.059853     3B2u   -0.059851
       3B1u   -0.059850     7Ag     0.068797     2B1g    0.068798
       8Ag     0.068800     2B2g    0.068801     2B3g    0.068804
       9Ag     0.078439     4B2u    0.187984     4B1u    0.187985
       4B3u    0.187986     5B3u    0.622466     5B2u    0.622467
       5B1u    0.622467    10Ag     0.887348     3B3g    0.887348
       3B2g    0.887348     3B1g    0.887348    11Ag     0.887348
      12Ag     2.839859     6B1u    2.925785     6B3u    2.925785
       6B2u    2.925785     7B1u    3.376459     7B2u    3.376459
       7B3u    3.376459     1Au     3.376459     8B1u    3.376459
       8B2u    3.376459     8B3u    3.376459    13Ag     3.581015
       4B3g    3.581015     4B1g    3.581015     4B2g    3.581015
      14Ag     3.581015    15Ag    12.772989     5B1g   12.772989
      16Ag    12.772989     5B2g   12.772989     5B3g   12.772989
       6B1g   12.772989    17Ag    12.772989     6B2g   12.772989
       6B3g   12.772989     9B2u   12.908326     9B1u   12.908326
       9B3u   12.908326     2Au    12.908326    10B2u   12.908327
      10B1u   12.908327    10B3u   12.908327

    Final Occupation by Irrep:
             Ag   B1g   B2g   B3g    Au   B1u   B2u   B3u
    DOCC [     5,    1,    1,    1,    0,    2,    2,    2 ]
    SOCC [     1,    0,    0,    0,    0,    0,    0,    0 ]

  @DF-UKS Final Energy: -1641.43133251541076

   => Energetics <=

    Nuclear Repulsion Energy =              0.0000000000000000
    One-Electron Energy =               -2291.2626172725713332
    Two-Electron Energy =                 718.2143384479953738
    DFT Exchange-Correlation Energy =     -68.3830536908347284
    Empirical Dispersion Energy =           0.0000000000000000
    VV10 Nonlocal Energy =                  0.0000000000000000
    Total Energy =                      -1641.4313325154105314

  UHF NO Occupations:
  HONO-2 :    1B1g 1.9995444
  HONO-1 :    5 Ag 1.9995444
  HONO-0 :    6 Ag 1.0000000
  LUNO+0 :    7 Ag 0.0004556
  LUNO+1 :    2B1g 0.0004556
  LUNO+2 :    8 Ag 0.0004556
  LUNO+3 :    2B2g 0.0004556

Computation Completed

Properties will be evaluated at   0.000000,   0.000000,   0.000000 [a0]

Properties computed using the SCF density matrix

  Nuclear Dipole Moment: [e a0]
     X:     0.0000      Y:     0.0000      Z:     0.0000

  Electronic Dipole Moment: [e a0]
     X:     0.0000      Y:     0.0000      Z:     0.0000

  Dipole Moment: [e a0]
     X:     0.0000      Y:     0.0000      Z:     0.0000     Total:     0.0000

  Dipole Moment: [D]
     X:     0.0000      Y:     0.0000      Z:     0.0000     Total:     0.0000

*** tstop() called on compute415.bc4.acrc.priv at Tue Nov  2 11:03:47 2021
Module time:
	user time   =      62.32 seconds =       1.04 minutes
	system time =       2.81 seconds =       0.05 minutes
	total time  =          3 seconds =       0.05 minutes
Total time:
	user time   =      62.32 seconds =       1.04 minutes
	system time =       2.81 seconds =       0.05 minutes
	total time  =          3 seconds =       0.05 minutes

    Psi4 stopped on: Tuesday, 02 November 2021 11:03AM
    Psi4 wall time for execution: 0:00:02.46

*** Psi4 exiting successfully. Buy a developer a beer!
