                               Psi4 1.3.2 release

  ==> Input File <==

--------------------------------------------------------------------------
memory 144 GB

molecule {
0 1
Cu       0.000000    0.000000    0.412716
F        0.000000    0.000000   -1.329863
 }

set basis Def2-TZVPPD

energy("GAM")
--------------------------------------------------------------------------

    Molecular point group: c2v

    Geometry (in Angstrom), charge = 0, multiplicity = 1:

       Center              X                  Y                   Z               Mass
    ------------   -----------------  -----------------  -----------------  -----------------
         CU           0.000000000000     0.000000000000     0.404089176206    62.929597720000
         F            0.000000000000     0.000000000000    -1.338489823794    18.998403162730

  Charge       = 0
  Multiplicity = 1
  Basis Set: DEF2-TZVPPD
    Blend: DEF2-TZVPPD
  Basis Set: (DEF2-TZVPPD AUX)
    Blend: DEF2-TZVPP-JKFIT

    Orbital Energies [Eh]
    ---------------------

    Doubly Occupied:

       1A1  -320.915259     2A1   -38.387011     3A1   -33.785776
       1B2   -33.784831     1B1   -33.784831     4A1   -24.128115
       5A1    -4.161899     6A1    -2.701579     2B2    -2.696267
       2B1    -2.696267     7A1    -0.975826     8A1    -0.340213
       3B2    -0.295624     3B1    -0.295624     1A2    -0.240634
       9A1    -0.240630     4B2    -0.219802     4B1    -0.219802
      10A1    -0.218184

  @DF-RKS Final Energy: -1741.29995468414336

   => Energetics <=

    Nuclear Repulsion Energy =             79.2591050304577180
    One-Electron Energy =               -2589.1114275263580566
    Two-Electron Energy =                 847.3896208997356325
    DFT Exchange-Correlation Energy =     -78.8372530879785813
    Empirical Dispersion Energy =           0.0000000000000000
    VV10 Nonlocal Energy =                  0.0000000000000000
    Total Energy =                      -1741.2999546841431311

  Dipole Moment: [D]
     X:     0.0000      Y:     0.0000      Z:     4.7187     Total:     4.7187

*** Psi4 exiting successfully. Buy a developer a beer!
