                               Psi4 1.3.2 release

  ==> Input File <==

--------------------------------------------------------------------------
memory 144 GB

molecule {
0 1
Cu       0.000000    0.000000    1.107490
Cu       0.000000    0.000000   -1.107490
 }

set basis Def2-TZVPPD

energy("GAM")
--------------------------------------------------------------------------

    Molecular point group: d2h

    Geometry (in Angstrom), charge = 0, multiplicity = 1:

       Center              X                  Y                   Z               Mass
    ------------   -----------------  -----------------  -----------------  -----------------
         CU           0.000000000000     0.000000000000     1.107490000000    62.929597720000
         CU           0.000000000000     0.000000000000    -1.107490000000    62.929597720000

  Charge       = 0
  Multiplicity = 1
  Basis Set: DEF2-TZVPPD
    Blend: DEF2-TZVPPD
  Basis Set: (DEF2-TZVPPD AUX)
    Blend: DEF2-TZVPP-JKFIT

    Orbital Energies [Eh]
    ---------------------

    Doubly Occupied:

       1B1u -320.871241     1Ag  -320.871221     2B1u  -38.342499
       2Ag   -38.342448     3Ag   -33.741678     3B1u  -33.741677
       1B2g  -33.740407     1B3g  -33.740407     1B3u  -33.740405
       1B2u  -33.740405     4Ag    -4.113877     4B1u   -4.113242
       5Ag    -2.655461     5B1u   -2.650565     2B3u   -2.648704
       2B2u   -2.648704     2B2g   -2.648223     2B3g   -2.648223
       6Ag    -0.235667     3B3u   -0.216369     3B2u   -0.216369
       1B1g   -0.198467     7Ag    -0.198459     1Au    -0.190708
       6B1u   -0.190700     8Ag    -0.184573     3B2g   -0.184002
       3B3g   -0.184002     7B1u   -0.181647

  @DF-RKS Final Energy: -3282.92786671954673

   => Energetics <=

    Nuclear Repulsion Energy =            200.9219199150647057
    One-Electron Energy =               -4984.2485694270799286
    Two-Electron Energy =                1637.1671928358248351
    DFT Exchange-Correlation Energy =    -136.7684100433563401
    Empirical Dispersion Energy =           0.0000000000000000
    VV10 Nonlocal Energy =                  0.0000000000000000
    Total Energy =                      -3282.9278667195467278

  Dipole Moment: [D]
     X:     0.0000      Y:     0.0000      Z:    -0.0000     Total:     0.0000

*** Psi4 exiting successfully. Buy a developer a beer!
