                               Psi4 1.3.2 release

  ==> Input File <==

--------------------------------------------------------------------------
memory 144 GB

molecule {
1 1
Cu       0.000000    1.349261   -0.000000
Cu       1.168494   -0.674630    0.000000
Cu      -1.168494   -0.674630   -0.000000
 }

set basis Def2-TZVPPD

energy("GAM")
--------------------------------------------------------------------------

    Molecular point group: c2v

    Geometry (in Angstrom), charge = 1, multiplicity = 1:

       Center              X                  Y                   Z               Mass
    ------------   -----------------  -----------------  -----------------  -----------------
         CU           0.000000000000     0.000000000000     1.349260666667    62.929597720000
         CU           1.168494000000     0.000000000000    -0.674630333333    62.929597720000
         CU          -1.168494000000    -0.000000000000    -0.674630333333    62.929597720000

  Charge       = 1
  Multiplicity = 1
  Basis Set: DEF2-TZVPPD
    Blend: DEF2-TZVPPD
  Basis Set: (DEF2-TZVPPD AUX)
    Blend: DEF2-TZVPP-JKFIT

    Orbital Energies [Eh]
    ---------------------

    Doubly Occupied:

       1A1  -321.092262     1B1  -321.092258     2A1  -321.092238
       3A1   -38.562644     2B1   -38.562640     4A1   -38.562585
       5A1   -33.961796     3B1   -33.961792     6A1   -33.961792
       4B1   -33.961734     5B1   -33.961726     7A1   -33.961723
       1B2   -33.959506     1A2   -33.959503     2B2   -33.959501
       8A1    -4.335084     9A1    -4.334609     6B1    -4.334603
      10A1    -2.875779    11A1    -2.873520     7B1    -2.873520
      12A1    -2.871620     8B1    -2.871615     9B1    -2.871296
       3B2    -2.867982     4B2    -2.867592     2A2    -2.867585
      13A1    -0.472261    14A1    -0.443528    10B1    -0.443520
       5B2    -0.440003    15A1    -0.431378     3A2    -0.423685
       6B2    -0.423659    16A1    -0.409383    17A1    -0.409206
      11B1    -0.409200    18A1    -0.405196    12B1    -0.405159
       4A2    -0.404722     5A2    -0.404171     7B2    -0.404126
      13B1    -0.395778

  @DF-RKS Final Energy: -4924.18073702925267

   => Energetics <=

    Nuclear Repulsion Energy =            571.2969406416424363
    One-Electron Energy =               -7997.0665585154383734
    Two-Electron Energy =                2706.5908443905664171
    DFT Exchange-Correlation Energy =    -205.0019635460228642
    Empirical Dispersion Energy =           0.0000000000000000
    VV10 Nonlocal Energy =                  0.0000000000000000
    Total Energy =                      -4924.1807370292526684

  Dipole Moment: [D]
     X:     0.0000      Y:     0.0000      Z:     0.0004     Total:     0.0004

*** Psi4 exiting successfully. Buy a developer a beer!
