                               Psi4 1.3.2 release

  ==> Input File <==

--------------------------------------------------------------------------
memory 144 GB

molecule {
1 1
Cu       0.000000    0.000000    0.000000
Cu       0.000000    0.000000    2.337165
Cu       0.000000    0.000000   -2.337165
 }

set basis Def2-TZVPPD

energy("GAM")
--------------------------------------------------------------------------

    Molecular point group: d2h

    Geometry (in Angstrom), charge = 1, multiplicity = 1:

       Center              X                  Y                   Z               Mass
    ------------   -----------------  -----------------  -----------------  -----------------
         CU           0.000000000000     0.000000000000     0.000000000000    62.929597720000
         CU           0.000000000000     0.000000000000     2.337165000000    62.929597720000
         CU           0.000000000000     0.000000000000    -2.337165000000    62.929597720000

  Charge       = 1
  Multiplicity = 1
  Basis Set: DEF2-TZVPPD
    Blend: DEF2-TZVPPD
  Basis Set: (DEF2-TZVPPD AUX)
    Blend: DEF2-TZVPP-JKFIT

    Orbital Energies [Eh]
    ---------------------

    Doubly Occupied:

       1B1u -321.088383     1Ag  -321.088376     2Ag  -321.060785
       2B1u  -38.554735     3Ag   -38.554713     4Ag   -38.532724
       5Ag   -33.955028     3B1u  -33.955027     1B2g  -33.952735
       1B3g  -33.952735     1B3u  -33.952734     1B2u  -33.952734
       4B1u  -33.932618     2B3u  -33.930173     2B2u  -33.930173
       5B1u   -4.329552     6Ag    -4.329541     7Ag    -4.303079
       6B1u   -2.869512     8Ag    -2.869354     3B3u   -2.864924
       3B2u   -2.864923     2B2g   -2.864923     2B3g   -2.864923
       7B1u   -2.844240     4B3u   -2.836969     4B2u   -2.836969
       9Ag    -0.450567     3B2g   -0.424542     3B3g   -0.424542
       8B1u   -0.420123     5B3u   -0.416347     5B2u   -0.416347
       1B1g   -0.411526    10Ag    -0.411517     1Au    -0.410981
       9B1u   -0.410972    11Ag    -0.392135     4B2g   -0.381392
       4B3g   -0.381392     2B1g   -0.380927    12Ag    -0.380913
      13Ag    -0.371821

  @DF-RKS Final Energy: -4924.13280732206022

   => Energetics <=

    Nuclear Repulsion Energy =            476.0447317299698398
    One-Electron Energy =               -7807.7170932143517348
    Two-Electron Energy =                2612.5359948516579607
    DFT Exchange-Correlation Energy =    -204.9964406893360263
    Empirical Dispersion Energy =           0.0000000000000000
    VV10 Nonlocal Energy =                  0.0000000000000000
    Total Energy =                      -4924.1328073220602164

  Dipole Moment: [D]
     X:     0.0000      Y:     0.0000      Z:    -0.0000     Total:     0.0000

*** Psi4 exiting successfully. Buy a developer a beer!
