                               Psi4 1.4.1 release

  ==> Input File <==

--------------------------------------------------------------------------
memory 120 GB

molecule {
0 2
Cu       0.000000    1.346828   -0.000000
Cu       1.166387   -0.673414   -0.000000
Cu      -1.166387   -0.673414   -0.000000
 }

set reference uks
set basis Def2-TZVPPD
set mom_start 9

energy("GAM")
--------------------------------------------------------------------------

    Molecular point group: c2v

    Geometry (in Angstrom), charge = 0, multiplicity = 2:

       Center              X                  Y                   Z               Mass
    ------------   -----------------  -----------------  -----------------  -----------------
         CU           0.000000000000    -0.000000000000     1.346828000000    62.929597720000
         CU           1.166387000000     0.000000000000    -0.673414000000    62.929597720000
         CU          -1.166387000000    -0.000000000000    -0.673414000000    62.929597720000

  Charge       = 0
  Multiplicity = 2
  Basis Set: DEF2-TZVPPD
    Blend: DEF2-TZVPPD
  Basis Set: (DEF2-TZVPPD AUX)
    Blend: DEF2-UNIVERSAL-JKFIT

    Orbital Energies [Eh]
    ---------------------

    Alpha Occupied:

       1B1  -320.893534     1A1  -320.893519     2A1  -320.884842
       2B1   -38.365865     3A1   -38.365827     4A1   -38.359129
       3B1   -33.764859     5A1   -33.764858     4B1   -33.763944
       6A1   -33.763940     1A2   -33.763044     1B2   -33.763042
       7A1   -33.758620     5B1   -33.757900     2B2   -33.754900
       8A1    -4.135785     6B1    -4.135453     9A1    -4.126203
      10A1    -2.676278     7B1    -2.673614    11A1    -2.671978
       8B1    -2.671266     3B2    -2.669880     2A2    -2.669609
      12A1    -2.665084     9B1    -2.663703     4B2    -2.658007
      13A1    -0.275624    14A1    -0.244367    10B1    -0.240736
       5B2    -0.240673    15A1    -0.233112     6B2    -0.225067
       3A2    -0.221653    16A1    -0.217285    11B1    -0.210321
      12B1    -0.208490     4A2    -0.207460    17A1    -0.204154
       5A2    -0.200843    18A1    -0.200436     7B2    -0.200158
      13B1    -0.194298    19A1    -0.127299

    Alpha Virtual:

      14B1    -0.128968     8B2    -0.066557    20A1    -0.037938
      15B1    -0.018955    21A1    -0.018652     6A2     0.021308
       9B2     0.023729    16B1     0.039142    22A1     0.040767
      17B1     0.076279    23A1     0.088315    24A1     0.092195
      10B2     0.097677    18B1     0.113958    25A1     0.116020
       7A2     0.141579    11B2     0.143164    26A1     0.158463
      19B1     0.177193    12B2     0.179870    20B1     0.180787
       8A2     0.182745    27A1     0.183921    28A1     0.189660
      21B1     0.194499    13B2     0.206602    22B1     0.257888
      29A1     0.258623     9A2     0.281808    30A1     0.288978
      31A1     0.310864    23B1     0.311104    14B2     0.316269
      10A2     0.320785    24B1     0.416911    25B1     0.447099
      32A1     0.451200    15B2     0.583503    33A1     0.590164
      26B1     0.636397    34A1     0.638479    11A2     0.683729
      16B2     0.686030    35A1     0.731633    36A1     0.739572
      27B1     0.739995    17B2     0.756364    18B2     0.790104
      12A2     0.793903    28B1     0.866348    37A1     0.866553
      29B1     0.890526    38A1     0.892321    13A2     0.972168
      30B1     0.985147    39A1     0.985936    14A2     1.029235
      19B2     1.031180    31B1     1.204108    40A1     1.205157
      32B1     1.222418    20B2     2.864092    41A1     2.925758
      42A1     2.943136    33B1     2.946720    15A2     2.970216
      21B2     2.977726    43A1     2.996089    34B1     2.996770
      44A1     3.000847    35B1     3.116987    45A1     3.303839
      36B1     3.313400    46A1     3.320826    22B2     3.328269
      23B2     3.335144    16A2     3.336674    37B1     3.352805
      47A1     3.353254    24B2     3.356419    38B1     3.356732
      17A2     3.357374    18A2     3.359024    48A1     3.360519
      39B1     3.363185    19A2     3.364188    25B2     3.364759
      49A1     3.365091    26B2     3.369060    40B1     3.373093
      50A1     3.395793    41B1     3.428827    42B1     3.476954
      51A1     3.482244    27B2     3.572986    52A1     3.576644
      20A2     3.577794    28B2     3.608826    43B1     3.627584
      53A1     3.633859    21A2     3.651645    22A2     3.700090
      29B2     3.706813    54A1     3.836488    44B1     3.838801
      55A1     3.853717    45B1     3.901930    46B1     4.137281
      56A1     4.140116    57A1    12.749069    47B1    12.749469
      23A2    12.749856    30B2    12.749976    48B1    12.750522
      58A1    12.750750    31B2    12.751133    24A2    12.751208
      49B1    12.752082    59A1    12.752138    25A2    12.752559
      50B1    12.752564    32B2    12.752772    60A1    12.752794
      61A1    12.754678    51B1    12.754680    26A2    12.754862
      33B2    12.754882    62A1    12.759284    52B1    12.760433
      34B2    12.761857    27A2    12.762808    63A1    12.764375
      53B1    12.765035    35B2    12.765467    28A2    12.766570
      64A1    12.766671    36B2    12.881376    65A1    12.882275
      54B1    12.882304    66A1    12.882991    29A2    12.883002
      37B2    12.883770    30A2    12.885131    67A1    12.885992
      55B1    12.886395    38B2    12.889272    39B2    12.893195
      56B1    12.893343    31A2    12.894197    68A1    12.898220
      57B1    12.898809    69A1    12.902315    32A2    12.903863
      40B2    12.906608    58B1    12.980268    59B1    12.987461
      70A1    12.987471

    Beta Occupied:

       1B1  -320.893305     1A1  -320.893290     2A1  -320.884175
       2B1   -38.365969     3A1   -38.365931     4A1   -38.359751
       3B1   -33.764786     5A1   -33.764785     4B1   -33.763872
       6A1   -33.763869     1A2   -33.763179     1B2   -33.763177
       7A1   -33.758692     5B1   -33.758267     2B2   -33.755401
       8A1    -4.135936     6B1    -4.135604     9A1    -4.127073
      10A1    -2.676206     7B1    -2.673679    11A1    -2.671954
       8B1    -2.671090     3B2    -2.670199     2A2    -2.669930
      12A1    -2.665732     9B1    -2.664038     4B2    -2.658781
      13A1    -0.271633    14A1    -0.242283     5B2    -0.239400
      10B1    -0.237373    15A1    -0.228083     6B2    -0.223360
       3A2    -0.219509    16A1    -0.213748    11B1    -0.209094
      12B1    -0.207229     4A2    -0.206827    17A1    -0.200655
       5A2    -0.198166     7B2    -0.196650    18A1    -0.196410
      13B1    -0.190925

    Beta Virtual:

      14B1    -0.126095    19A1    -0.123535    20A1    -0.072252
       8B2    -0.068619    15B1    -0.035925    21A1    -0.027530
       9B2    -0.007317     6A2     0.012048    16B1     0.025105
      22A1     0.026675    17B1     0.060975    23A1     0.079966
      10B2     0.086103    24A1     0.106652    25A1     0.114578
      18B1     0.121155    26A1     0.142303     7A2     0.152274
       8A2     0.159363    27A1     0.160838    11B2     0.163469
      12B2     0.168594    19B1     0.169217    28A1     0.184667
      20B1     0.192861    13B2     0.192970    21B1     0.206549
      29A1     0.225539    22B1     0.226716     9A2     0.243545
      30A1     0.271093    14B2     0.278223    23B1     0.285622
      31A1     0.294371    10A2     0.303018    24B1     0.396689
      32A1     0.447471    25B1     0.448700    33A1     0.586540
      15B2     0.590056    34A1     0.640583    26B1     0.642292
      11A2     0.684364    16B2     0.694628    35A1     0.731730
      27B1     0.743417    36A1     0.755326    17B2     0.758983
      18B2     0.790831    12A2     0.797732    28B1     0.873051
      37A1     0.874828    38A1     0.898905    29B1     0.899414
      13A2     0.978569    30B1     0.997024    39A1     1.002532
      14A2     1.035179    19B2     1.044884    31B1     1.212320
      40A1     1.220091    32B1     1.245289    20B2     2.868069
      41A1     2.928082    42A1     2.949233    33B1     2.953979
      15A2     2.971617    21B2     2.983381    34B1     3.000198
      43A1     3.001306    44A1     3.009147    35B1     3.120838
      45A1     3.307709    36B1     3.315839    46A1     3.327308
      22B2     3.328224    23B2     3.339883    16A2     3.341347
      37B1     3.354832    47A1     3.355502    24B2     3.358086
      17A2     3.358240    38B1     3.358774    18A2     3.359654
      48A1     3.363304    39B1     3.367181    19A2     3.367553
      49A1     3.367614    25B2     3.368716    26B2     3.373050
      40B1     3.377731    50A1     3.400455    41B1     3.432874
      42B1     3.479664    51A1     3.487265    27B2     3.574054
      52A1     3.578727    20A2     3.580444    28B2     3.610927
      43B1     3.630829    53A1     3.638718    21A2     3.655062
      22A2     3.702560    29B2     3.713621    54A1     3.841849
      44B1     3.844106    55A1     3.855851    45B1     3.909272
      46B1     4.139965    56A1     4.146069    57A1    12.748984
      23A2    12.749278    30B2    12.749327    47B1    12.749330
      58A1    12.750124    48B1    12.750440    31B2    12.750633
      24A2    12.750671    49B1    12.751403    59A1    12.751758
      25A2    12.752304    50B1    12.752330    32B2    12.752534
      60A1    12.752808    61A1    12.753978    51B1    12.753988
      26A2    12.754228    33B2    12.754280    62A1    12.758202
      52B1    12.759415    34B2    12.760332    27A2    12.761400
      63A1    12.762708    53B1    12.763501    35B2    12.763896
      28A2    12.764696    64A1    12.764924    36B2    12.881629
      54B1    12.882384    65A1    12.882630    29A2    12.882870
      66A1    12.883154    37B2    12.884105    30A2    12.885153
      55B1    12.886329    67A1    12.886337    38B2    12.888896
      39B2    12.893458    56B1    12.893713    31A2    12.894567
      68A1    12.897890    57B1    12.899286    69A1    12.902448
      32A2    12.903878    40B2    12.906292    58B1    12.980656
      59B1    12.987343    70A1    12.987347

    Final Occupation by Irrep:
             A1    A2    B1    B2
    DOCC [    18,    5,   13,    7 ]
    SOCC [     1,    0,    0,    0 ]

  @DF-UKS Final Energy: -4924.39236631874337

   => Energetics <=

    Nuclear Repulsion Energy =            572.3288892399986025
    One-Electron Energy =               -8016.6029534224689996
    Two-Electron Energy =                2725.0268897941336945
    DFT Exchange-Correlation Energy =    -205.1451919304063836
    Empirical Dispersion Energy =           0.0000000000000000
    VV10 Nonlocal Energy =                  0.0000000000000000
    Total Energy =                      -4924.3923663187424609

  UHF NO Occupations:
  HONO-2 :   13 B1 1.9979816
  HONO-1 :   18 A1 1.9976077
  HONO-0 :   19 A1 1.0000000
  LUNO+0 :   20 A1 0.0023923
  LUNO+1 :   14 B1 0.0020184
  LUNO+2 :   21 A1 0.0003755
  LUNO+3 :    8 B2 0.0003637

Computation Completed

Properties will be evaluated at   0.000000,   0.000000,   0.000000 [a0]

Properties computed using the SCF density matrix

  Nuclear Dipole Moment: [e a0]
     X:    -0.0000      Y:    -0.0000      Z:     0.0000

  Electronic Dipole Moment: [e a0]
     X:     0.0000      Y:     0.0000      Z:    -0.3111

  Dipole Moment: [e a0]
     X:    -0.0000      Y:    -0.0000      Z:    -0.3111     Total:     0.3111

  Dipole Moment: [D]
     X:    -0.0000      Y:    -0.0000      Z:    -0.7907     Total:     0.7907

*** tstop() called on bc4login3.bc4.acrc.priv at Fri Nov  5 10:40:40 2021
Module time:
	user time   =     153.57 seconds =       2.56 minutes
	system time =      26.70 seconds =       0.45 minutes
	total time  =         17 seconds =       0.28 minutes
Total time:
	user time   =     153.57 seconds =       2.56 minutes
	system time =      26.70 seconds =       0.45 minutes
	total time  =         17 seconds =       0.28 minutes

    Psi4 stopped on: Friday, 05 November 2021 10:40AM
    Psi4 wall time for execution: 0:00:17.06

*** Psi4 exiting successfully. Buy a developer a beer!
