                               Psi4 1.3.2 release

  ==> Input File <==

--------------------------------------------------------------------------
memory 144 GB

molecule {
0 2
Cu       0.000000    0.000000    0.000000
Cu       0.000000    0.000000    2.291099
Cu       0.000000    0.000000   -2.291099
 }

set reference uks
set basis Def2-TZVPPD

energy("GAM")
--------------------------------------------------------------------------

    Molecular point group: d2h

    Geometry (in Angstrom), charge = 0, multiplicity = 2:

       Center              X                  Y                   Z               Mass
    ------------   -----------------  -----------------  -----------------  -----------------
         CU           0.000000000000     0.000000000000     0.000000000000    62.929597720000
         CU           0.000000000000     0.000000000000     2.291099000000    62.929597720000
         CU           0.000000000000     0.000000000000    -2.291099000000    62.929597720000

  Charge       = 0
  Multiplicity = 2
  Basis Set: DEF2-TZVPPD
    Blend: DEF2-TZVPPD
  Basis Set: (DEF2-TZVPPD AUX)
    Blend: DEF2-TZVPP-JKFIT

    Orbital Energies [Eh]
    ---------------------

    Alpha Occupied:

       1B1u -320.882114     1Ag  -320.882105     2Ag  -320.874224
       2B1u  -38.351721     3Ag   -38.351696     4Ag   -38.347341
       5Ag   -33.751948     3B1u  -33.751946     1B3g  -33.749592
       1B2g  -33.749592     1B2u  -33.749590     1B3u  -33.749590
       4B1u  -33.746897     2B2u  -33.744872     2B3u  -33.744872
       6Ag    -4.122374     5B1u   -4.122373     7Ag    -4.116793
       6B1u   -2.663718     8Ag    -2.662820     3B2u   -2.657064
       3B3u   -2.657064     2B3g   -2.657055     2B2g   -2.657055
       7B1u   -2.656040     4B2u   -2.651058     4B3u   -2.651058
       9Ag    -0.258274     3B3g   -0.227368     3B2g   -0.227368
       8B1u   -0.215716     5B2u   -0.212102     5B3u   -0.212102
       1B1g   -0.207737    10Ag    -0.207728     1Au    -0.205813
       9B1u   -0.205805    11Ag    -0.203480     2B1g   -0.193952
      12Ag    -0.193939     4B3g   -0.186750     4B2g   -0.186750
      13Ag    -0.183637    10B1u   -0.175781

    Alpha Virtual:

      14Ag    -0.089040     6B2u   -0.057352     6B3u   -0.057351
      11B1u   -0.021075     5B3g   -0.013575     5B2g   -0.013575
      12B1u    0.044799    15Ag     0.047209     7B2u    0.055967
       7B3u    0.055967    16Ag     0.068079     8B2u    0.101472
       8B3u    0.101473    13B1u    0.117599     6B3g    0.121291
       6B2g    0.121291     3B1g    0.132375    17Ag     0.132375
      18Ag     0.169784     9B3u    0.172080     9B2u    0.172080
      14B1u    0.174394     2Au     0.174394    19Ag     0.190343
       7B3g    0.210752     7B2g    0.210752    15B1u    0.235181
       4B1g    0.258898    20Ag     0.258899    16B1u    0.271095
      10B2u    0.316644    10B3u    0.316645    21Ag     0.341370
       8B3g    0.428940     8B2g    0.428940    22Ag     0.453176
      17B1u    0.518090    18B1u    0.575428    11B3u    0.612281
      11B2u    0.612281     9B2g    0.635992     9B3g    0.635992
      12B2u    0.699605    12B3u    0.699605    23Ag     0.723755
       5B1g    0.808051    24Ag     0.808062    10B3g    0.848651
      10B2g    0.848651     3Au     0.848996    19B1u    0.849005
      20B1u    0.849500    25Ag     0.904674    13B2u    0.910945
      13B3u    0.910945     6B1g    0.920613    26Ag     0.920627
      11B3g    1.112442    11B2g    1.112442    21B1u    1.146854
      27Ag     1.429118    28Ag     2.871648    14B2u    2.872246
      14B3u    2.872246    22B1u    2.970307    12B3g    2.971351
      12B2g    2.971351    15B2u    2.993809    15B3u    2.993809
      23B1u    3.043028    29Ag     3.120144    24B1u    3.264796
      30Ag     3.300630    16B2u    3.336719    16B3u    3.336719
      13B3g    3.342996    13B2g    3.342996     4Au     3.359688
      25B1u    3.359727     7B1g    3.360764    31Ag     3.360803
      17B2u    3.363548    17B3u    3.363548    14B3g    3.363550
      14B2g    3.363550     5Au     3.374995    26B1u    3.375055
      18B3u    3.380416    18B2u    3.380416    19B2u    3.395046
      19B3u    3.395046    27B1u    3.400653    32Ag     3.471298
       8B1g    3.543394    33Ag     3.543478     6Au     3.568973
      28B1u    3.569048    15B3g    3.611523    15B2g    3.611523
       9B1g    3.616008    34Ag     3.616094    29B1u    3.676383
      20B2u    3.680424    20B3u    3.680424    16B3g    3.772697
      16B2g    3.772697    35Ag     3.902400    30B1u    4.006830
      36Ag     4.346822    21B2u   12.762495    21B3u   12.762495
      17B3g   12.763220    17B2g   12.763220     7Au    12.763382
      10B1g   12.763437    31B1u   12.763528    37Ag    12.763699
      32B1u   12.764265    38Ag    12.764321    22B2u   12.765683
      22B3u   12.765683    18B3g   12.765692    18B2g   12.765692
      39Ag    12.767319    33B1u   12.767319     8Au    12.767568
      11B1g   12.767568    19B3g   12.769901    19B2g   12.769901
      12B1g   12.770122    40Ag    12.771530    20B2g   12.772990
      20B3g   12.772990    41Ag    12.773432    42Ag    12.774976
      13B1g   12.775315    23B2u   12.891854    23B3u   12.891854
       9Au    12.895510    34B1u   12.895758    14B1g   12.896802
      43Ag    12.897045    35B1u   12.897065    24B2u   12.898926
      24B3u   12.898926    21B2g   12.898926    21B3g   12.898926
      10Au    12.901907    36B1u   12.902233    25B2u   12.904049
      25B3u   12.904049    22B3g   12.909901    22B2g   12.909901
      26B2u   12.919614    26B3u   12.919614    44Ag    12.989430
      37B1u   13.023595

    Beta Occupied:

       1B1u -320.881430     1Ag  -320.881421     2Ag  -320.874168
       2B1u  -38.352976     3Ag   -38.352950     4Ag   -38.347755
       5Ag   -33.752721     3B1u  -33.752719     1B3g  -33.750385
       1B2g  -33.750385     1B2u  -33.750383     1B3u  -33.750383
       4B1u  -33.747166     2B2u  -33.745096     2B3u  -33.745096
       6Ag    -4.124307     5B1u   -4.124307     7Ag    -4.117451
       6B1u   -2.664413     8Ag    -2.663544     3B2u   -2.659172
       3B3u   -2.659172     2B3g   -2.659165     2B2g   -2.659165
       7B1u   -2.656680     4B2u   -2.651703     4B3u   -2.651703
       9Ag    -0.252696     3B3g   -0.224978     3B2g   -0.224978
       8B1u   -0.212953     5B3u   -0.209029     5B2u   -0.209029
       1B1g   -0.204829    10Ag    -0.204820     1Au    -0.202384
       9B1u   -0.202375     2B1g   -0.194083    11Ag    -0.194071
      12Ag    -0.191150     4B3g   -0.185769     4B2g   -0.185769
      13Ag    -0.183292

    Beta Virtual:

      10B1u   -0.153883    14Ag    -0.084203     6B3u   -0.054040
       6B2u   -0.054040    11B1u   -0.022812     5B2g   -0.015167
       5B3g   -0.015166     7B3u    0.047784     7B2u    0.047785
      15Ag     0.059696    16Ag     0.076058    12B1u    0.077701
       8B3u    0.114045     8B2u    0.114046    13B1u    0.121705
      17Ag     0.122596     3B1g    0.122597     6B3g    0.145423
       6B2g    0.145423    14B1u    0.153151     2Au     0.153152
      18Ag     0.161528     7B2g    0.185875     7B3g    0.185875
       9B2u    0.196312     9B3u    0.196312    19Ag     0.207061
      15B1u    0.228559    20Ag     0.242137     4B1g    0.242139
      16B1u    0.258964    10B3u    0.298724    10B2u    0.298724
      21Ag     0.335257     8B2g    0.422305     8B3g    0.422306
      22Ag     0.458285    17B1u    0.530719    18B1u    0.581549
      11B3u    0.621838    11B2u    0.621838     9B2g    0.648957
       9B3g    0.648958    12B3u    0.703002    12B2u    0.703002
      23Ag     0.730364     5B1g    0.820142    24Ag     0.820148
      19B1u    0.857169    10B2g    0.857737    10B3g    0.857738
       3Au     0.870982    20B1u    0.870982    25Ag     0.917225
      13B3u    0.922656    13B2u    0.922656     6B1g    0.927738
      26Ag     0.927745    11B2g    1.124476    11B3g    1.124476
      21B1u    1.163888    27Ag     1.442268    28Ag     2.876492
      14B3u    2.878646    14B2u    2.878646    22B1u    2.974119
      12B2g    2.979944    12B3g    2.979944    15B3u    2.996236
      15B2u    2.996236    23B1u    3.049419    29Ag     3.126577
      24B1u    3.270233    30Ag     3.304162    16B3u    3.338369
      16B2u    3.338369    13B2g    3.346650    13B3g    3.346650
       4Au     3.364112    25B1u    3.364147     7B1g    3.365806
      31Ag     3.365839    17B2u    3.370623    17B3u    3.370623
      14B3g    3.370628    14B2g    3.370628     5Au     3.375659
      26B1u    3.375715    18B3u    3.379977    18B2u    3.379977
      19B3u    3.398959    19B2u    3.398959    27B1u    3.403410
      32Ag     3.474427     8B1g    3.547878    33Ag     3.547952
       6Au     3.576707    28B1u    3.576766    15B2g    3.617609
      15B3g    3.617609     9B1g    3.618447    34Ag     3.618524
      29B1u    3.680909    20B3u    3.685564    20B2u    3.685564
      16B2g    3.774661    16B3g    3.774661    35Ag     3.908390
      30B1u    4.012265    36Ag     4.352854    21B2u   12.760264
      21B3u   12.760264     7Au    12.760893    10B1g   12.760948
      17B3g   12.760988    17B2g   12.760988    31B1u   12.761415
      37Ag    12.761633    32B1u   12.761777    38Ag    12.761833
      22B3u   12.762989    22B2u   12.762989    18B2g   12.763002
      18B3g   12.763002    33B1u   12.764805    39Ag    12.764805
       8Au    12.765055    11B1g   12.765055    19B3g   12.769186
      19B2g   12.769186    12B1g   12.769312    40Ag    12.770720
      20B2g   12.772218    20B3g   12.772218    41Ag    12.772739
      42Ag    12.774654    13B1g   12.774993    23B2u   12.891433
      23B3u   12.891433     9Au    12.894307    34B1u   12.894553
      14B1g   12.895574    43Ag    12.895816    24B3u   12.896681
      24B2u   12.896681    21B3g   12.896682    21B2g   12.896682
      35B1u   12.896809    10Au    12.901159    36B1u   12.901486
      25B2u   12.903301    25B3u   12.903301    22B3g   12.909463
      22B2g   12.909463    26B2u   12.919160    26B3u   12.919160
      44Ag    12.989185    37B1u   13.023182

    Final Occupation by Irrep:
             Ag   B1g   B2g   B3g    Au   B1u   B2u   B3u
    DOCC [    13,    2,    4,    4,    1,    9,    5,    5 ]
    SOCC [     0,    0,    0,    0,    0,    1,    0,    0 ]

  @DF-UKS Final Energy: -4924.39390823985741

   => Energetics <=

    Nuclear Repulsion Energy =            485.6163288595016070
    One-Electron Energy =               -7844.1625931796370423
    Two-Electron Energy =                2639.3077229086075022
    DFT Exchange-Correlation Energy =    -205.1553668283296474
    Empirical Dispersion Energy =           0.0000000000000000
    VV10 Nonlocal Energy =                  0.0000000000000000
    Total Energy =                      -4924.3939082398574101

  UHF NO Occupations:
  HONO-2 :    4B3g 1.9998285
  HONO-1 :   13 Ag 1.9968085
  HONO-0 :   10B1u 1.0000000
  LUNO+0 :   14 Ag 0.0031915
  LUNO+1 :    5B3g 0.0001715
  LUNO+2 :    5B2g 0.0001714
  LUNO+3 :    3B1g 0.0001603

Computation Completed

Properties will be evaluated at   0.000000,   0.000000,   0.000000 [a0]

Properties computed using the SCF density matrix

  Nuclear Dipole Moment: [e a0]
     X:     0.0000      Y:     0.0000      Z:     0.0000

  Electronic Dipole Moment: [e a0]
     X:     0.0000      Y:     0.0000      Z:     0.0000

  Dipole Moment: [e a0]
     X:     0.0000      Y:     0.0000      Z:     0.0000     Total:     0.0000

  Dipole Moment: [D]
     X:     0.0000      Y:     0.0000      Z:     0.0000     Total:     0.0000

*** tstop() called on bp1-compute00157.data.bp.acrc.priv at Thu Oct 28 15:25:49 2021
Module time:
	user time   =     287.48 seconds =       4.79 minutes
	system time =      19.14 seconds =       0.32 minutes
	total time  =         14 seconds =       0.23 minutes
Total time:
	user time   =     287.48 seconds =       4.79 minutes
	system time =      19.14 seconds =       0.32 minutes
	total time  =         14 seconds =       0.23 minutes

    Psi4 stopped on: Thursday, 28 October 2021 03:25PM
    Psi4 wall time for execution: 0:00:13.31

*** Psi4 exiting successfully. Buy a developer a beer!
