                               Psi4 1.4.1 release

  ==> Input File <==

--------------------------------------------------------------------------
memory 144 GB

molecule {
2 1
Cu      -0.000001   -0.000007    1.488630
Cu       0.000001   -1.403449   -0.496203
Cu       1.215485    0.701727   -0.496214
Cu      -1.215485    0.701729   -0.496213
 }

set basis Def2-TZVPPD

energy("GAM")
--------------------------------------------------------------------------

    Molecular point group: c1

    Geometry (in Angstrom), charge = 2, multiplicity = 1:

       Center              X                  Y                   Z               Mass
    ------------   -----------------  -----------------  -----------------  -----------------
         CU          -0.000001000000    -0.000007000000     1.488630000000    62.929597720000
         CU           0.000001000000    -1.403449000000    -0.496203000000    62.929597720000
         CU           1.215485000000     0.701727000000    -0.496214000000    62.929597720000
         CU          -1.215485000000     0.701729000000    -0.496213000000    62.929597720000

  Charge       = 2
  Multiplicity = 1
  Basis Set: DEF2-TZVPPD
    Blend: DEF2-TZVPPD
  Basis Set: (DEF2-TZVPPD AUX)
    Blend: DEF2-UNIVERSAL-JKFIT

    Orbital Energies [Eh]
    ---------------------

    Doubly Occupied:

       1A   -321.298168     2A   -321.298167     3A   -321.298165
       4A   -321.298143     5A    -38.768544     6A    -38.768544
       7A    -38.768540     8A    -38.768482     9A    -34.167452
      10A    -34.167451    11A    -34.167450    12A    -34.167446
      13A    -34.166368    14A    -34.166367    15A    -34.166365
      16A    -34.166363    17A    -34.166362    18A    -34.166361
      19A    -34.166359    20A    -34.166358    21A     -4.540012
      22A     -4.539630    23A     -4.539628    24A     -4.539626
      25A     -3.080113    26A     -3.077785    27A     -3.077783
      28A     -3.077780    29A     -3.075521    30A     -3.075512
      31A     -3.075152    32A     -3.075150    33A     -3.075144
      34A     -3.074530    35A     -3.074524    36A     -3.074522
      37A     -0.698923    38A     -0.651382    39A     -0.651376
      40A     -0.651358    41A     -0.639439    42A     -0.639436
      43A     -0.630003    44A     -0.629980    45A     -0.629971
      46A     -0.628181    47A     -0.611207    48A     -0.611193
      49A     -0.611183    50A     -0.611165    51A     -0.611157
      52A     -0.611142    53A     -0.611134    54A     -0.611118
      55A     -0.600540    56A     -0.600533    57A     -0.600529

  @DF-RKS Final Energy: -6565.25250910350769

   => Energetics <=

    Nuclear Repulsion Energy =           1098.4462396717549382
    One-Electron Energy =              -11312.5036884229302814
    Two-Electron Energy =                3922.0027048968436247
    DFT Exchange-Correlation Energy =    -273.1977652491763706
    Empirical Dispersion Energy =           0.0000000000000000
    VV10 Nonlocal Energy =                  0.0000000000000000
    Total Energy =                      -6565.2525091035067817

  Dipole Moment: [D]
     X:    -0.0001      Y:     0.0003      Z:     0.0003     Total:     0.0004

*** Psi4 exiting successfully. Buy a developer a beer!
