                               Psi4 1.4.1 release

  ==> Input File <==

--------------------------------------------------------------------------
memory 144 GB

molecule {
2 2
Cu      -0.967673    0.056725    1.180703
Cu      -0.972439   -0.054931   -1.177653
Cu       0.936359    1.185605   -0.057167
Cu       0.933653   -1.187345    0.053806
H        2.032882   -0.001578    0.009000
 }

set reference uks
set basis Def2-TZVPPD

energy("GAM")
--------------------------------------------------------------------------

    Molecular point group: c1

    Geometry (in Angstrom), charge = 2, multiplicity = 2:

       Center              X                  Y                   Z               Mass
    ------------   -----------------  -----------------  -----------------  -----------------
         CU          -0.958324640850     0.056717846605     1.180744549625    62.929597720000
         CU          -0.963090640850    -0.054938153395    -1.177611450375    62.929597720000
         CU           0.945707359150     1.185597846605    -0.057125450375    62.929597720000
         CU           0.943001359150    -1.187352153395     0.053847549625    62.929597720000
         H            2.042230359150    -0.001585153395     0.009041549625     1.007825032230

  Charge       = 2
  Multiplicity = 2
  Basis Set: DEF2-TZVPPD
    Blend: DEF2-TZVPPD
  Basis Set: (DEF2-TZVPPD AUX)
    Blend: DEF2-UNIVERSAL-JKFIT

    Orbital Energies [Eh]
    ---------------------

    Alpha Occupied:

       1A   -321.323753     2A   -321.323742     3A   -321.298936
       4A   -321.298828     5A    -38.799692     6A    -38.799666
       7A    -38.769420     8A    -38.769304     9A    -34.200118
      10A    -34.200111    11A    -34.196967    12A    -34.196960
      13A    -34.193877    14A    -34.193869    15A    -34.168533
      16A    -34.168420    17A    -34.167338    18A    -34.167223
      19A    -34.166967    20A    -34.166863    21A     -4.570601
      22A     -4.570335    23A     -4.540523    24A     -4.540206
      25A     -3.113722    26A     -3.112018    27A     -3.106698
      28A     -3.105763    29A     -3.100112    30A     -3.099889
      31A     -3.080063    32A     -3.078252    33A     -3.076516
      34A     -3.075575    35A     -3.075236    36A     -3.074974
      37A     -0.758888    38A     -0.704333    39A     -0.668975
      40A     -0.667219    41A     -0.660433    42A     -0.653356
      43A     -0.650893    44A     -0.649514    45A     -0.648935
      46A     -0.642128    47A     -0.637289    48A     -0.636058
      49A     -0.627472    50A     -0.625447    51A     -0.620457
      52A     -0.619887    53A     -0.616487    54A     -0.613328
      55A     -0.610940    56A     -0.609552    57A     -0.606132
      58A     -0.573188

    Alpha Virtual:

      59A     -0.498193    60A     -0.490813    61A     -0.431302
      62A     -0.380597    63A     -0.372161    64A     -0.366398
      65A     -0.356640    66A     -0.342216    67A     -0.222846
      68A     -0.220675    69A     -0.216861    70A     -0.211976
      71A     -0.206030    72A     -0.204956    73A     -0.198657
      74A     -0.177874    75A     -0.159415    76A     -0.151334
      77A     -0.149149    78A     -0.145194    79A     -0.144132
      80A     -0.142064    81A     -0.137084    82A     -0.136669
      83A     -0.094446    84A     -0.087363    85A     -0.085460
      86A     -0.079797    87A     -0.078729    88A     -0.068999
      89A     -0.060144    90A     -0.050486    91A     -0.049962
      92A     -0.043882    93A     -0.036716    94A     -0.032735
      95A     -0.023534    96A     -0.021347    97A     -0.006812
      98A      0.009484    99A      0.037476   100A      0.040628
     101A      0.044237   102A      0.050864   103A      0.052923
     104A      0.063355   105A      0.095678   106A      0.096423
     107A      0.096505   108A      0.110220   109A      0.114897
     110A      0.116944   111A      0.133300   112A      0.158229
     113A      0.189348   114A      0.313105   115A      0.315000
     116A      0.320060   117A      0.335472   118A      0.348128
     119A      0.357991   120A      0.367856   121A      0.394106
     122A      0.424653   123A      0.432352   124A      0.435875
     125A      0.445611   126A      0.462163   127A      0.469875
     128A      0.483474   129A      0.500648   130A      0.501824
     131A      0.541183   132A      0.553982   133A      0.576863
     134A      0.584064   135A      0.590537   136A      0.609614
     137A      0.612384   138A      0.637171   139A      0.640708
     140A      0.738490   141A      0.764809   142A      0.784918
     143A      0.785194   144A      0.790773   145A      0.832073
     146A      0.839494   147A      0.927868   148A      0.976537
     149A      2.116833   150A      2.337926   151A      2.430237
     152A      2.482502   153A      2.517254   154A      2.525974
     155A      2.549057   156A      2.552670   157A      2.568071
     158A      2.573127   159A      2.602200   160A      2.676922
     161A      2.677368   162A      2.714817   163A      2.739032
     164A      2.753341   165A      2.787262   166A      2.808531
     167A      2.814185   168A      2.905661   169A      2.907232
     170A      2.913751   171A      2.917797   172A      2.928395
     173A      2.937353   174A      2.937897   175A      2.938544
     176A      2.940919   177A      2.941220   178A      2.945976
     179A      2.947918   180A      2.949418   181A      2.952396
     182A      2.953921   183A      2.960324   184A      2.960647
     185A      2.962740   186A      2.969631   187A      2.975759
     188A      2.982799   189A      2.993258   190A      3.015371
     191A      3.081987   192A      3.086522   193A      3.092670
     194A      3.170468   195A      3.176910   196A      3.183422
     197A      3.188303   198A      3.205495   199A      3.237922
     200A      3.250751   201A      3.253534   202A      3.271165
     203A      3.314003   204A      3.317951   205A      3.352398
     206A      3.363365   207A      3.372510   208A      3.373512
     209A      3.420003   210A      3.449009   211A      3.450306
     212A      3.462574   213A      3.481808   214A      3.581949
     215A      3.593080   216A      3.682018   217A      3.803181
     218A      3.804914   219A      3.880677   220A      4.258549
     221A      4.454445   222A     12.313788   223A     12.316076
     224A     12.316822   225A     12.317373   226A     12.318005
     227A     12.318306   228A     12.318784   229A     12.319843
     230A     12.320780   231A     12.322088   232A     12.322241
     233A     12.322325   234A     12.322632   235A     12.322967
     236A     12.323899   237A     12.324061   238A     12.324376
     239A     12.324599   240A     12.344150   241A     12.344378
     242A     12.344709   243A     12.344902   244A     12.345260
     245A     12.345271   246A     12.345424   247A     12.345826
     248A     12.346046   249A     12.346258   250A     12.346358
     251A     12.346492   252A     12.346587   253A     12.346970
     254A     12.348416   255A     12.348568   256A     12.348662
     257A     12.348785   258A     12.452779   259A     12.455003
     260A     12.459338   261A     12.459963   262A     12.460334
     263A     12.461593   264A     12.465822   265A     12.475312
     266A     12.476845   267A     12.478915   268A     12.479796
     269A     12.480567   270A     12.482205   271A     12.482823
     272A     12.484485   273A     12.485604   274A     12.485895
     275A     12.491418   276A     12.496656   277A     12.498441
     278A     12.507908   279A     12.513475   280A     12.519663
     281A     12.520751   282A     12.538447   283A     12.566201
     284A     12.708306   285A     12.719391

    Beta Occupied:

       1A   -321.323484     2A   -321.323473     3A   -321.298631
       4A   -321.298522     5A    -38.795196     6A    -38.795170
       7A    -38.769209     8A    -38.769118     9A    -34.195422
      10A    -34.195414    11A    -34.193581    12A    -34.193573
      13A    -34.191735    14A    -34.191726    15A    -34.168168
      16A    -34.168076    17A    -34.167030    18A    -34.166972
      19A    -34.166938    20A    -34.166881    21A     -4.562727
      22A     -4.562460    23A     -4.540088    24A     -4.539790
      25A     -3.102191    26A     -3.100287    27A     -3.099152
      28A     -3.098372    29A     -3.095665    30A     -3.095440
      31A     -3.079096    32A     -3.077530    33A     -3.075783
      34A     -3.075335    35A     -3.075086    36A     -3.074633
      37A     -0.740135    38A     -0.695500    39A     -0.662410
      40A     -0.661761    41A     -0.654400    42A     -0.647106
      43A     -0.645700    44A     -0.644433    45A     -0.637675
      46A     -0.637565    47A     -0.631243    48A     -0.630285
      49A     -0.623887    50A     -0.621513    51A     -0.617314
      52A     -0.614675    53A     -0.614007    54A     -0.610713
      55A     -0.609483    56A     -0.608331    57A     -0.603228

    Beta Virtual:

      58A     -0.554596    59A     -0.492066    60A     -0.487167
      61A     -0.420636    62A     -0.379292    63A     -0.367060
      64A     -0.363103    65A     -0.352779    66A     -0.340399
      67A     -0.220576    68A     -0.219281    69A     -0.214967
      70A     -0.209956    71A     -0.207057    72A     -0.198261
      73A     -0.191554    74A     -0.175816    75A     -0.157070
      76A     -0.150130    77A     -0.137855    78A     -0.134458
      79A     -0.121015    80A     -0.116088    81A     -0.112487
      82A     -0.110546    83A     -0.076367    84A     -0.070451
      85A     -0.068711    86A     -0.066532    87A     -0.058790
      88A     -0.055129    89A     -0.053526    90A     -0.053369
      91A     -0.052176    92A     -0.046983    93A     -0.040585
      94A     -0.038362    95A     -0.031997    96A     -0.014868
      97A     -0.011450    98A      0.008208    99A      0.045824
     100A      0.048650   101A      0.050041   102A      0.053864
     103A      0.060471   104A      0.066696   105A      0.093214
     106A      0.099280   107A      0.109346   108A      0.112791
     109A      0.118254   110A      0.123412   111A      0.141684
     112A      0.147327   113A      0.196685   114A      0.315215
     115A      0.317589   116A      0.318767   117A      0.331946
     118A      0.352910   119A      0.365651   120A      0.366762
     121A      0.402461   122A      0.426408   123A      0.433756
     124A      0.443528   125A      0.444706   126A      0.467987
     127A      0.473608   128A      0.495953   129A      0.507398
     130A      0.509368   131A      0.547161   132A      0.547859
     133A      0.583478   134A      0.598745   135A      0.599830
     136A      0.611204   137A      0.624288   138A      0.647164
     139A      0.653510   140A      0.761872   141A      0.781825
     142A      0.793713   143A      0.798510   144A      0.804789
     145A      0.844364   146A      0.850655   147A      0.940463
     148A      0.996920   149A      2.153688   150A      2.349285
     151A      2.444379   152A      2.487113   153A      2.532527
     154A      2.535812   155A      2.553469   156A      2.561145
     157A      2.583914   158A      2.590504   159A      2.612421
     160A      2.681256   161A      2.682392   162A      2.725624
     163A      2.743017   164A      2.760546   165A      2.792519
     166A      2.816126   167A      2.823631   168A      2.907622
     169A      2.913089   170A      2.917049   171A      2.919597
     172A      2.930878   173A      2.940426   174A      2.941038
     175A      2.941222   176A      2.944888   177A      2.945663
     178A      2.949689   179A      2.951167   180A      2.953091
     181A      2.955433   182A      2.956716   183A      2.962342
     184A      2.964466   185A      2.966268   186A      2.975024
     187A      2.978884   188A      2.985537   189A      2.996942
     190A      3.023710   191A      3.087951   192A      3.090626
     193A      3.099345   194A      3.175928   195A      3.187996
     196A      3.193359   197A      3.202419   198A      3.212131
     199A      3.243382   200A      3.259195   201A      3.260034
     202A      3.281305   203A      3.325299   204A      3.333096
     205A      3.357924   206A      3.370541   207A      3.384732
     208A      3.398592   209A      3.428504   210A      3.455994
     211A      3.466725   212A      3.472718   213A      3.489117
     214A      3.602534   215A      3.628235   216A      3.710140
     217A      3.809336   218A      3.810437   219A      3.894448
     220A      4.282812   221A      4.477150   222A     12.323470
     223A     12.323696   224A     12.323745   225A     12.323969
     226A     12.324063   227A     12.324278   228A     12.324429
     229A     12.324514   230A     12.325404   231A     12.328127
     232A     12.328348   233A     12.328429   234A     12.328565
     235A     12.328906   236A     12.329588   237A     12.330620
     238A     12.332256   239A     12.335292   240A     12.344421
     241A     12.344604   242A     12.344824   243A     12.344937
     244A     12.345257   245A     12.345536   246A     12.345714
     247A     12.345953   248A     12.346157   249A     12.346371
     250A     12.346626   251A     12.346698   252A     12.346988
     253A     12.347101   254A     12.347959   255A     12.348086
     256A     12.348154   257A     12.348255   258A     12.459177
     259A     12.461306   260A     12.465413   261A     12.466184
     262A     12.466737   263A     12.470718   264A     12.471002
     265A     12.479992   266A     12.480617   267A     12.480951
     268A     12.481095   269A     12.481694   270A     12.483197
     271A     12.485058   272A     12.486612   273A     12.487314
     274A     12.487394   275A     12.493115   276A     12.500543
     277A     12.502529   278A     12.509351   279A     12.522560
     280A     12.523093   281A     12.529217   282A     12.545407
     283A     12.567915   284A     12.720390   285A     12.732199

    Final Occupation by Irrep:
              A
    DOCC [    57 ]
    SOCC [     1 ]

  @DF-UKS Final Energy: -6565.80565344403931

   => Energetics <=

    Nuclear Repulsion Energy =           1106.1480243785747462
    One-Electron Energy =              -11326.5747545879476093
    Two-Electron Energy =                3928.1078824421783793
    DFT Exchange-Correlation Energy =    -273.4868056768452220
    Empirical Dispersion Energy =           0.0000000000000000
    VV10 Nonlocal Energy =                  0.0000000000000000
    Total Energy =                      -6565.8056534440393079

  UHF NO Occupations:
  HONO-2 :   56  A 1.9997442
  HONO-1 :   57  A 1.9992752
  HONO-0 :   58  A 1.0000000
  LUNO+0 :   59  A 0.0007248
  LUNO+1 :   60  A 0.0002558
  LUNO+2 :   61  A 0.0002457
  LUNO+3 :   62  A 0.0001585

Computation Completed

Properties will be evaluated at   0.000000,   0.000000,   0.000000 [a0]

Properties computed using the SCF density matrix

  Nuclear Dipole Moment: [e a0]
     X:     2.0669      Y:    -0.0016      Z:     0.0092

  Electronic Dipole Moment: [e a0]
     X:    -2.1766      Y:     0.0020      Z:    -0.0106

  Dipole Moment: [e a0]
     X:    -0.1097      Y:     0.0004      Z:    -0.0014     Total:     0.1097

  Dipole Moment: [D]
     X:    -0.2788      Y:     0.0010      Z:    -0.0036     Total:     0.2788

*** tstop() called on compute130.bc4.acrc.priv at Tue Nov  2 15:20:45 2021
Module time:
	user time   =     869.45 seconds =      14.49 minutes
	system time =      39.81 seconds =       0.66 minutes
	total time  =         34 seconds =       0.57 minutes
Total time:
	user time   =     869.45 seconds =      14.49 minutes
	system time =      39.81 seconds =       0.66 minutes
	total time  =         34 seconds =       0.57 minutes

    Psi4 stopped on: Tuesday, 02 November 2021 03:20PM
    Psi4 wall time for execution: 0:00:33.76

*** Psi4 exiting successfully. Buy a developer a beer!
