                               Psi4 1.4.1 release

  ==> Input File <==

--------------------------------------------------------------------------
memory 144 GB

molecule {
2 2
Cu      -0.000000    1.387730   -0.507533
Cu       1.201809   -0.693865   -0.507533
Cu      -1.201809   -0.693865   -0.507533
Cu       0.000000    0.000000    1.576640
H        0.000000    0.000000   -1.567185
 }

set reference uks
set basis Def2-TZVPPD

energy("GAM")
--------------------------------------------------------------------------

    Molecular point group: cs

    Geometry (in Angstrom), charge = 2, multiplicity = 2:

       Center              X                  Y                   Z               Mass
    ------------   -----------------  -----------------  -----------------  -----------------
         CU          -1.387730000000     0.514739732039     0.000000000000    62.929597720000
         CU           0.693865000000     0.514739732039     1.201809000000    62.929597720000
         CU           0.693865000000     0.514739732039    -1.201809000000    62.929597720000
         CU           0.000000000000    -1.569433267961     0.000000000000    62.929597720000
         H            0.000000000000     1.574391732039     0.000000000000     1.007825032230

  Charge       = 2
  Multiplicity = 2
  Basis Set: DEF2-TZVPPD
    Blend: DEF2-TZVPPD
  Basis Set: (DEF2-TZVPPD AUX)
    Blend: DEF2-UNIVERSAL-JKFIT

    Orbital Energies [Eh]
    ---------------------

    Alpha Occupied:

       1Ap  -321.318736     1App -321.318735     2Ap  -321.318717
       3Ap  -321.289751     4Ap   -38.791625     2App  -38.791624
       5Ap   -38.791581     6Ap   -38.760308     3App  -34.190832
       7Ap   -34.190831     8Ap   -34.190829     4App  -34.188999
       9Ap   -34.188999    10Ap   -34.188996     5App  -34.188178
       6App  -34.188172    11Ap   -34.188170    12Ap   -34.159950
       7App  -34.157998    13Ap   -34.157996    14Ap    -4.563556
      15Ap    -4.563215     8App   -4.563209    16Ap    -4.529740
      17Ap    -3.104892    18Ap    -3.102591     9App   -3.102586
      19Ap    -3.098754    20Ap    -3.098373    10App   -3.098365
      11App   -3.097034    21Ap    -3.097032    12App   -3.096159
      22Ap    -3.068748    23Ap    -3.064743    13App   -3.064742
      24Ap    -0.791304    25Ap    -0.698264    26Ap    -0.667558
      14App   -0.667550    27Ap    -0.658623    15App   -0.655317
      28Ap    -0.655301    29Ap    -0.649927    30Ap    -0.643465
      16App   -0.643457    17App   -0.636150    31Ap    -0.636130
      32Ap    -0.632089    18App   -0.632069    19App   -0.631278
      20App   -0.621466    21App   -0.608454    33Ap    -0.608451
      34Ap    -0.607968    35Ap    -0.606930    22App   -0.606912
      36Ap    -0.555796

    Alpha Virtual:

      23App   -0.500139    37Ap    -0.500135    38Ap    -0.421084
      39Ap    -0.384041    24App   -0.362355    40Ap    -0.362353
      25App   -0.357356    41Ap    -0.357348    42Ap    -0.225054
      43Ap    -0.215558    26App   -0.215180    44Ap    -0.215177
      27App   -0.207917    45Ap    -0.207911    28App   -0.204697
      46Ap    -0.175410    47Ap    -0.156340    48Ap    -0.152381
      29App   -0.149639    49Ap    -0.149633    30App   -0.146804
      50Ap    -0.146803    31App   -0.138492    51Ap    -0.138479
      52Ap    -0.089978    32App   -0.087779    53Ap    -0.087776
      33App   -0.081663    54Ap    -0.081649    34App   -0.076416
      55Ap    -0.065068    56Ap    -0.044829    57Ap    -0.044688
      35App   -0.044687    58Ap    -0.027746    36App   -0.027744
      59Ap    -0.019488    37App   -0.019483    38App   -0.011318
      60Ap    -0.003513    61Ap     0.013143    39App    0.043306
      62Ap     0.043311    40App    0.045095    63Ap     0.045103
      64Ap     0.073036    65Ap     0.094378    41App    0.100968
      66Ap     0.100990    67Ap     0.113457    42App    0.113460
      43App    0.122050    44App    0.128743    68Ap     0.128748
      69Ap     0.245539    70Ap     0.314834    45App    0.316121
      71Ap     0.316164    46App    0.343049    72Ap     0.343050
      73Ap     0.349078    47App    0.392876    74Ap     0.392899
      75Ap     0.426712    48App    0.427719    76Ap     0.427722
      77Ap     0.460377    78Ap     0.479971    49App    0.479972
      50App    0.510346    79Ap     0.510353    51App    0.513840
      80Ap     0.517555    52App    0.553670    81Ap     0.553675
      53App    0.576333    82Ap     0.582156    54App    0.582156
      83Ap     0.615532    55App    0.627045    84Ap     0.627056
      56App    0.770220    85Ap     0.770270    86Ap     0.771021
      57App    0.788203    87Ap     0.788218    58App    0.820523
      88Ap     0.939599    59App    0.939624    89Ap     1.024845
      90Ap     2.169924    60App    2.473545    91Ap     2.473549
      92Ap     2.504312    93Ap     2.507942    61App    2.508024
      94Ap     2.526085    95Ap     2.576176    62App    2.576290
      96Ap     2.637465    97Ap     2.646763    63App    2.646792
      98Ap     2.668539    64App    2.668544    65App    2.716392
      99Ap     2.788692    66App    2.788725   100Ap     2.790756
     101Ap     2.865052   102Ap     2.911275    67App    2.916717
     103Ap     2.916719    68App    2.929660   104Ap     2.929673
      69App    2.933863    70App    2.934195   105Ap     2.934229
      71App    2.936359   106Ap     2.937079    72App    2.937082
     107Ap     2.948342   108Ap     2.956114    73App    2.956118
      74App    2.958044    75App    2.976041   109Ap     2.976042
     110Ap     2.977190   111Ap     2.979332   112Ap     2.981410
      76App    2.981416    77App    2.983613   113Ap     3.062712
      78App    3.096224   114Ap     3.096230   115Ap     3.145503
     116Ap     3.153941    79App    3.153952   117Ap     3.164889
      80App    3.164945    81App    3.228603   118Ap     3.242618
      82App    3.242694   119Ap     3.251986   120Ap     3.266052
      83App    3.266065   121Ap     3.347546   122Ap     3.351504
      84App    3.351630   123Ap     3.374274    85App    3.411186
     124Ap     3.411228   125Ap     3.439971    86App    3.439978
      87App    3.473687   126Ap     3.530185    88App    3.530227
     127Ap     3.546121   128Ap     3.811818    89App    3.987360
     129Ap     3.987665   130Ap     4.160235   131Ap     4.289466
      90App    4.289686    91App   12.321149   132Ap    12.321256
      92App   12.321578   133Ap    12.322444    93App   12.322789
     134Ap    12.322868    94App   12.323056   135Ap    12.323161
     136Ap    12.323279    95App   12.324077    96App   12.324212
     137Ap    12.324256    97App   12.324472   138Ap    12.324529
      98App   12.324722   139Ap    12.325277    99App   12.325330
     140Ap    12.325515   100App   12.326735   141Ap    12.326742
     142Ap    12.327010   101App   12.328108   143Ap    12.328385
     102App   12.328410   144Ap    12.328525   145Ap    12.328589
     103App   12.328642   146Ap    12.355560   147Ap    12.356177
     104App   12.356390   148Ap    12.357150   105App   12.357280
     106App   12.357654   149Ap    12.358511   107App   12.360150
     150Ap    12.360153   108App   12.459002   151Ap    12.459733
     109App   12.460385   152Ap    12.460599   110App   12.460612
     153Ap    12.463831   111App   12.463849   154Ap    12.466396
     112App   12.466413   155Ap    12.468506   113App   12.468518
     156Ap    12.475535   114App   12.475544   157Ap    12.475782
     158Ap    12.491893   159Ap    12.492774   115App   12.492809
     116App   12.492837   160Ap    12.494307   161Ap    12.517949
     162Ap    12.526648   117App   12.526703   118App   12.529171
     163Ap    12.540738   119App   12.540765   120App   12.617436
     164Ap    12.617452   165Ap    12.700947

    Beta Occupied:

       1Ap  -321.318541     1App -321.318540     2Ap  -321.318522
       3Ap  -321.289163     4Ap   -38.788974     2App  -38.788973
       5Ap   -38.788930     6Ap   -38.761523     3App  -34.188154
       7Ap   -34.188154     8Ap   -34.188152     4App  -34.187067
       5App  -34.187061     9Ap   -34.187058    10Ap   -34.186697
       6App  -34.186696    11Ap   -34.186694    12Ap   -34.160659
       7App  -34.158799    13Ap   -34.158797    14Ap    -4.558985
      15Ap    -4.558643     8App   -4.558635    16Ap    -4.531726
      17Ap    -3.098988    18Ap    -3.096782     9App   -3.096777
      10App   -3.094614    19Ap    -3.094613    11App   -3.093873
      20Ap    -3.093270    21Ap    -3.092899    12App   -3.092889
      22Ap    -3.070666    13App   -3.066419    23Ap    -3.066418
      24Ap    -0.776952    25Ap    -0.689969    26Ap    -0.664445
      14App   -0.664437    27Ap    -0.651189    15App   -0.649910
      28Ap    -0.649897    29Ap    -0.646777    30Ap    -0.638723
      16App   -0.638715    31Ap    -0.629435    17App   -0.629424
      18App   -0.627809    32Ap    -0.627806    19App   -0.627436
      20App   -0.618022    21App   -0.606447    33Ap    -0.606444
      34Ap    -0.605257    35Ap    -0.604470    22App   -0.604451

    Beta Virtual:

      36Ap    -0.538397    23App   -0.495074    37Ap    -0.495072
      38Ap    -0.410797    39Ap    -0.382552    40Ap    -0.360067
      24App   -0.360066    25App   -0.355134    41Ap    -0.355132
      42Ap    -0.223536    43Ap    -0.217048    44Ap    -0.213231
      26App   -0.213231    27App   -0.204587    28App   -0.197775
      45Ap    -0.197758    46Ap    -0.169437    29App   -0.163871
      47Ap    -0.163871    48Ap    -0.138343    30App   -0.118623
      49Ap    -0.118619    50Ap    -0.112896    31App   -0.112892
      51Ap    -0.109258    52Ap    -0.073585    32App   -0.068614
      53Ap    -0.068605    54Ap    -0.063908    33App   -0.054599
      55Ap    -0.054597    34App   -0.054051    35App   -0.039574
      56Ap    -0.039574    36App   -0.037462    57Ap    -0.037461
      37App   -0.029368    58Ap    -0.029367    59Ap    -0.025316
      38App   -0.023645    60Ap     0.007085    61Ap     0.014380
      39App    0.047247    62Ap     0.047252    63Ap     0.051520
      40App    0.051523    64Ap     0.075349    41App    0.101935
      65Ap     0.101950    66Ap     0.115680    42App    0.121552
      67Ap     0.121582    43App    0.130022    68Ap     0.130023
      44App    0.130271    69Ap     0.260071    70Ap     0.322382
      45App    0.322593    71Ap     0.322618    46App    0.341091
      72Ap     0.341099    73Ap     0.348903    47App    0.388885
      74Ap     0.388890    75Ap     0.423245    48App    0.431030
      76Ap     0.431038    77Ap     0.460698    49App    0.489570
      78Ap     0.489571    50App    0.507579    51App    0.512404
      79Ap     0.512414    80Ap     0.527099    81Ap     0.560122
      52App    0.560124    53App    0.584326    54App    0.592584
      82Ap     0.592602    83Ap     0.633278    84Ap     0.643154
      55App    0.643165    56App    0.781712    85Ap     0.781811
      86Ap     0.785896    57App    0.803385    87Ap     0.803420
      58App    0.826053    88Ap     0.956079    59App    0.956086
      89Ap     1.035038    90Ap     2.199498    60App    2.479927
      91Ap     2.480020    92Ap     2.513101    93Ap     2.515347
      61App    2.515404    94Ap     2.539435    95Ap     2.587746
      62App    2.587889    96Ap     2.645260    63App    2.655522
      97Ap     2.655577    64App    2.672231    98Ap     2.672232
      65App    2.716895    99Ap     2.795457    66App    2.795478
     100Ap     2.796913   101Ap     2.869327   102Ap     2.914264
     103Ap     2.918777    67App    2.918777    68App    2.933425
     104Ap     2.933430    69App    2.936326   105Ap     2.936372
      70App    2.936697    71App    2.938042   106Ap     2.938446
      72App    2.938449   107Ap     2.953488   108Ap     2.959771
      73App    2.959775    74App    2.960667    75App    2.980078
     109Ap     2.980080   110Ap     2.980862   111Ap     2.983527
      76App    2.984566   112Ap     2.987012    77App    2.987020
     113Ap     3.068576    78App    3.100865   114Ap     3.100882
     115Ap     3.158981    79App    3.158989   116Ap     3.165724
     117Ap     3.175558    80App    3.175591    81App    3.234319
     118Ap     3.252187    82App    3.252244   119Ap     3.266181
     120Ap     3.274499    83App    3.274511   121Ap     3.357625
      84App    3.372021   122Ap     3.372059   123Ap     3.386771
      85App    3.421968   124Ap     3.422033    86App    3.445343
     125Ap     3.445349    87App    3.476763    88App    3.541049
     126Ap     3.541100   127Ap     3.558049   128Ap     3.818356
      89App    4.006057   129Ap     4.006279   130Ap     4.191206
      90App    4.303974   131Ap     4.304112   132Ap    12.325035
     133Ap    12.325055    91App   12.325083    92App   12.325359
      93App   12.326333   134Ap    12.326379    94App   12.326936
      95App   12.327429   135Ap    12.327584    96App   12.327706
     136Ap    12.327917   137Ap    12.328310    97App   12.328310
     138Ap    12.328606    98App   12.328609   139Ap    12.329175
      99App   12.329353   140Ap    12.329832   141Ap    12.329896
     100App   12.329986   101App   12.330229   142Ap    12.330242
     102App   12.330486   143Ap    12.330708   144Ap    12.333424
     103App   12.333430   145Ap    12.333860   146Ap    12.353343
     147Ap    12.354053   104App   12.354155   148Ap    12.354672
     105App   12.354770   106App   12.355007   149Ap    12.355835
     107App   12.357787   150Ap    12.357793   108App   12.463013
     151Ap    12.463876   152Ap    12.465009   109App   12.465024
     110App   12.466237   153Ap    12.468673   111App   12.468683
     154Ap    12.470187   112App   12.470212   155Ap    12.472619
     113App   12.472633   156Ap    12.479738   157Ap    12.481333
     114App   12.481342   158Ap    12.491480   115App   12.491520
     116App   12.492009   159Ap    12.492234   160Ap    12.493535
     161Ap    12.523038   162Ap    12.528060   117App   12.528123
     118App   12.532720   163Ap    12.543937   119App   12.543953
     120App   12.624131   164Ap    12.624148   165Ap    12.707639

    Final Occupation by Irrep:
             Ap   App
    DOCC [    35,   22 ]
    SOCC [     1,    0 ]

  @DF-UKS Final Energy: -6565.80383093201090

   => Energetics <=

    Nuclear Repulsion Energy =           1119.9202327796770078
    One-Electron Energy =              -11354.0467081585920823
    Two-Electron Energy =                3941.8342929188479502
    DFT Exchange-Correlation Energy =    -273.5116484719446248
    Empirical Dispersion Energy =           0.0000000000000000
    VV10 Nonlocal Energy =                  0.0000000000000000
    Total Energy =                      -6565.8038309320118060

  UHF NO Occupations:
  HONO-2 :   22App 1.9995970
  HONO-1 :   35 Ap 1.9993871
  HONO-0 :   36 Ap 1.0000000
  LUNO+0 :   37 Ap 0.0006129
  LUNO+1 :   23App 0.0004030
  LUNO+2 :   38 Ap 0.0004020
  LUNO+3 :   39 Ap 0.0001408

Computation Completed

Properties will be evaluated at   0.000000,   0.000000,   0.000000 [a0]

Properties computed using the SCF density matrix

  Nuclear Dipole Moment: [e a0]
     X:    -0.0000      Y:     1.5934      Z:     0.0000

  Electronic Dipole Moment: [e a0]
     X:     0.0002      Y:    -1.4561      Z:     0.0000

  Dipole Moment: [e a0]
     X:     0.0002      Y:     0.1373      Z:     0.0000     Total:     0.1373

  Dipole Moment: [D]
     X:     0.0005      Y:     0.3489      Z:     0.0000     Total:     0.3489

*** tstop() called on compute449.bc4.acrc.priv at Tue Nov  2 16:39:21 2021
Module time:
	user time   =     966.00 seconds =      16.10 minutes
	system time =      46.12 seconds =       0.77 minutes
	total time  =         37 seconds =       0.62 minutes
Total time:
	user time   =     966.00 seconds =      16.10 minutes
	system time =      46.12 seconds =       0.77 minutes
	total time  =         37 seconds =       0.62 minutes

    Psi4 stopped on: Tuesday, 02 November 2021 04:39PM
    Psi4 wall time for execution: 0:00:37.37

*** Psi4 exiting successfully. Buy a developer a beer!
