                               Psi4 1.4.1 release

  ==> Input File <==

--------------------------------------------------------------------------
memory 144 GB

molecule {
0 1
Cu      -0.387876   -0.085256    2.052405
Cu       1.110029    0.096858    0.214111
Cu       0.386859    0.085217   -2.052443
Cu      -1.109011   -0.096818   -0.214073
 }

set basis Def2-TZVPPD

energy("GAM")
--------------------------------------------------------------------------

    Molecular point group: c1

    Geometry (in Angstrom), charge = 0, multiplicity = 1:

       Center              X                  Y                   Z               Mass
    ------------   -----------------  -----------------  -----------------  -----------------
         CU          -0.387876250000    -0.085256250000     2.052405000000    62.929597720000
         CU           1.110028750000     0.096857750000     0.214111000000    62.929597720000
         CU           0.386858750000     0.085216750000    -2.052443000000    62.929597720000
         CU          -1.109011250000    -0.096818250000    -0.214073000000    62.929597720000

  Charge       = 0
  Multiplicity = 1
  Basis Set: DEF2-TZVPPD
    Blend: DEF2-TZVPPD
  Basis Set: (DEF2-TZVPPD AUX)
    Blend: DEF2-UNIVERSAL-JKFIT

    Orbital Energies [Eh]
    ---------------------

    Doubly Occupied:

       1A   -320.896097     2A   -320.896080     3A   -320.880013
       4A   -320.879996     5A    -38.370068     6A    -38.370027
       7A    -38.354899     8A    -38.354868     9A    -33.768701
      10A    -33.768684    11A    -33.768093    12A    -33.768073
      13A    -33.766981    14A    -33.766967    15A    -33.754181
      16A    -33.754165    17A    -33.753126    18A    -33.753110
      19A    -33.750930    20A    -33.750914    21A     -4.139908
      22A     -4.139429    23A     -4.121907    24A     -4.121887
      25A     -2.680558    26A     -2.676674    27A     -2.676026
      28A     -2.675508    29A     -2.673663    30A     -2.673292
      31A     -2.661179    32A     -2.661033    33A     -2.658452
      34A     -2.658391    35A     -2.654127    36A     -2.654111
      37A     -0.280834    38A     -0.262877    39A     -0.246763
      40A     -0.243922    41A     -0.243742    42A     -0.234415
      43A     -0.223074    44A     -0.221321    45A     -0.220386
      46A     -0.209995    47A     -0.208986    48A     -0.203778
      49A     -0.202519    50A     -0.201781    51A     -0.201640
      52A     -0.201039    53A     -0.195144    54A     -0.194602
      55A     -0.194441    56A     -0.194159    57A     -0.188590
      58A     -0.159182

  @DF-RKS Final Energy: -6565.90417351168071

   => Energetics <=

    Nuclear Repulsion Energy =           1051.1684347552327381
    One-Electron Energy =              -11265.2001834354268794
    Two-Electron Energy =                3921.6588049196075190
    DFT Exchange-Correlation Energy =    -273.5312297510940880
    Empirical Dispersion Energy =           0.0000000000000000
    VV10 Nonlocal Energy =                  0.0000000000000000
    Total Energy =                      -6565.9041735116807104

  Dipole Moment: [D]
     X:     0.0024      Y:     0.0002      Z:     0.0003     Total:     0.0025

*** Psi4 exiting successfully. Buy a developer a beer!
