                               Psi4 1.4.1 release

  ==> Input File <==

--------------------------------------------------------------------------
memory 120 GB

molecule {
2 1
Cu       0.253817    1.375381    0.000000
Cu       0.253817   -0.687598    1.191098
Cu       0.253817   -0.687598   -1.191098
Cu      -1.745352    0.000159    0.000000
N        2.725949   -0.000959   -0.000000
H        3.150217   -0.936878   -0.000000
H        3.150637    0.466806   -0.810419
H        3.150637    0.466806    0.810419
 }

set basis Def2-TZVPPD
set mom_start 20

energy('SCF', write_orbitals='mos')
energy("GAM", restart_file='mos')
--------------------------------------------------------------------------

    Molecular point group: cs
  Charge       = 2
  Multiplicity = 1
  Basis Set: DEF2-TZVPPD
    Blend: DEF2-TZVPPD
  Basis Set: (DEF2-TZVPPD AUX)
    Blend: DEF2-UNIVERSAL-JKFIT
  @DF-RHF Final Energy: -6611.44843386958928
    Total Energy =                      -6611.4484338695892802
    Molecular point group: cs

    Geometry (in Angstrom), charge = 2, multiplicity = 1:

       Center              X                  Y                   Z               Mass
    ------------   -----------------  -----------------  -----------------  -----------------
         CU           0.306727314614     1.375362665601     0.000000000000    62.929597720000
         CU           0.306727314614    -0.687616334399     1.191098000000    62.929597720000
         CU           0.306727314614    -0.687616334399    -1.191098000000    62.929597720000
         CU          -1.692441685386     0.000140665601     0.000000000000    62.929597720000
         N            2.778859314614    -0.000977334399     0.000000000000    14.003074004430
         H            3.203127314614    -0.936896334399     0.000000000000     1.007825032230
         H            3.203547314614     0.466787665601    -0.810419000000     1.007825032230
         H            3.203547314614     0.466787665601     0.810419000000     1.007825032230

  Charge       = 2
  Multiplicity = 1
  Basis Set: DEF2-TZVPPD
    Blend: DEF2-TZVPPD
  Basis Set: (DEF2-TZVPPD AUX)
    Blend: DEF2-UNIVERSAL-JKFIT

    Orbital Energies [Eh]
    ---------------------

    Doubly Occupied:

       1Ap  -321.262437     1App -321.262431     2Ap  -321.262420
       3Ap  -321.257584     4Ap   -38.732989     2App  -38.732983
       5Ap   -38.732954     6Ap   -38.729050     7Ap   -34.131663
       3App  -34.131657     8Ap   -34.131657     4App  -34.131651
       5App  -34.131641     9Ap   -34.131638    10Ap   -34.130111
       6App  -34.130104    11Ap   -34.130103    12Ap   -34.128097
       7App  -34.126680    13Ap   -34.126678    14Ap   -14.354610
      15Ap    -4.504633    16Ap    -4.504245     8App   -4.504240
      17Ap    -4.499273    18Ap    -3.044558    19Ap    -3.042528
       9App   -3.042527    20Ap    -3.041058    10App   -3.041050
      11App   -3.040538    21Ap    -3.039237    22Ap    -3.038270
      12App   -3.038263    23Ap    -3.037343    24Ap    -3.034269
      13App   -3.034268    25Ap    -1.130252    14App   -0.753757
      26Ap    -0.753749    27Ap    -0.670817    28Ap    -0.636283
      29Ap    -0.616441    15App   -0.616417    30Ap    -0.611144
      16App   -0.604099    31Ap    -0.604098    32Ap    -0.597778
      17App   -0.593209    33Ap    -0.593202    34Ap    -0.576718
      18App   -0.576691    19App   -0.575646    35Ap    -0.574491
      20App   -0.574390    36Ap    -0.574384    21App   -0.572396
      37Ap    -0.572395    22App   -0.564915    38Ap    -0.562706
      23App   -0.562686    39Ap    -0.558728

  @DF-RKS Final Energy: -6621.87959373972353

   => Energetics <=

    Nuclear Repulsion Energy =           1311.3739657161461309
    One-Electron Energy =              -11814.8978469707690238
    Two-Electron Energy =                4162.8647817298115115
    DFT Exchange-Correlation Energy =    -281.2204942149118665
    Empirical Dispersion Energy =           0.0000000000000000
    VV10 Nonlocal Energy =                  0.0000000000000000
    Total Energy =                      -6621.8795937397235321

  Dipole Moment: [D]
     X:     4.1623      Y:    -0.0014      Z:    -0.0000     Total:     4.1623

*** Psi4 exiting successfully. Buy a developer a beer!
