                               Psi4 1.4.1 release

  ==> Input File <==

--------------------------------------------------------------------------
memory 144 GB

molecule {
2 1
Cu       0.543145   -0.896300    1.192832
Cu       0.543145   -0.896300   -1.192832
Cu      -1.492086   -0.543328    0.000000
Cu       0.211399    1.215580   -0.000000
N        0.543145    3.129666   -0.000000
H        0.146420    3.607894   -0.818022
H        0.146420    3.607894    0.818022
H        1.542647    3.366638   -0.000000
 }

set basis Def2-TZVPPD

energy("GAM")
--------------------------------------------------------------------------

    Molecular point group: cs

    Geometry (in Angstrom), charge = 2, multiplicity = 1:

       Center              X                  Y                   Z               Mass
    ------------   -----------------  -----------------  -----------------  -----------------
         CU           0.553481103940    -0.836716104147     1.192832000000    62.929597720000
         CU           0.553481103940    -0.836716104147    -1.192832000000    62.929597720000
         CU          -1.481749896060    -0.483744104147     0.000000000000    62.929597720000
         CU           0.221735103940     1.275163895853     0.000000000000    62.929597720000
         N            0.553481103940     3.189249895853     0.000000000000    14.003074004430
         H            0.156756103940     3.667477895853    -0.818022000000     1.007825032230
         H            0.156756103940     3.667477895853     0.818022000000     1.007825032230
         H            1.552983103940     3.426221895853     0.000000000000     1.007825032230

  Charge       = 2
  Multiplicity = 1
  Basis Set: DEF2-TZVPPD
    Blend: DEF2-TZVPPD
  Basis Set: (DEF2-TZVPPD AUX)
    Blend: DEF2-UNIVERSAL-JKFIT

    Orbital Energies [Eh]
    ---------------------

    Doubly Occupied:

       1App -321.260835     1Ap  -321.260834     2Ap  -321.260819
       3Ap  -321.254621     4Ap   -38.731991     2App  -38.731788
       5Ap   -38.731786     6Ap   -38.731746     3App  -34.130574
       7Ap   -34.130574     8Ap   -34.130570     9Ap   -34.130484
       4App  -34.129838     5App  -34.129833    10Ap   -34.129832
       6App  -34.129341    11Ap   -34.129340    12Ap   -34.129334
       7App  -34.128974    13Ap   -34.128971    14Ap   -14.365197
      15Ap    -4.502845    16Ap    -4.502463     8App   -4.502463
      17Ap    -4.499358    18Ap    -3.042841     9App   -3.040535
      19Ap    -3.040534    20Ap    -3.038546    10App   -3.038541
      21Ap    -3.038280    11App   -3.037720    12App   -3.037261
      22Ap    -3.037259    23Ap    -3.036621    13App   -3.033848
      24Ap    -3.033846    25Ap    -1.141764    26Ap    -0.764573
      14App   -0.764554    27Ap    -0.686799    28Ap    -0.643140
      29Ap    -0.613303    30Ap    -0.612715    15App   -0.612693
      16App   -0.601041    31Ap    -0.601013    32Ap    -0.594666
      33Ap    -0.591737    17App   -0.590842    34Ap    -0.590824
      35Ap    -0.574029    18App   -0.574013    19App   -0.573356
      20App   -0.573195    36Ap    -0.573171    21App   -0.570591
      37Ap    -0.570584    22App   -0.562481    38Ap    -0.560189
      23App   -0.560164    39Ap    -0.553162

  @DF-RKS Final Energy: -6621.92604227782340

   => Energetics <=

    Nuclear Repulsion Energy =           1296.6693314971132622
    One-Electron Energy =              -11785.5857412301520526
    Two-Electron Energy =                4148.1971527647856419
    DFT Exchange-Correlation Energy =    -281.2067853095695114
    Empirical Dispersion Energy =           0.0000000000000000
    VV10 Nonlocal Energy =                  0.0000000000000000
    Total Energy =                      -6621.9260422778233988

  Dipole Moment: [D]
     X:     0.7012      Y:     4.0526      Z:     0.0000     Total:     4.1128

*** Psi4 exiting successfully. Buy a developer a beer!
