                               Psi4 1.4.1 release

  ==> Input File <==

--------------------------------------------------------------------------
memory 144 GB

molecule {
0 2
F        0.000000    0.000000    0.000000
 }

set reference uks
set basis Def2-TZVPPD

energy("GAM")
--------------------------------------------------------------------------

    Molecular point group: d2h
    Geometry (in Angstrom), charge = 0, multiplicity = 2:

       Center              X                  Y                   Z               Mass
    ------------   -----------------  -----------------  -----------------  -----------------
         F            0.000000000000     0.000000000000     0.000000000000    18.998403162730

  Charge       = 0
  Multiplicity = 2
  Basis Set: DEF2-TZVPPD
    Blend: DEF2-TZVPPD
  Basis Set: (DEF2-TZVPPD AUX)
    Blend: DEF2-UNIVERSAL-JKFIT

    Orbital Energies [Eh]
    ---------------------

    Alpha Occupied:

       1Ag   -24.321437     2Ag    -1.140289     1B1u   -0.500661
       1B2u   -0.414317     1B3u   -0.414317

    Alpha Virtual:

       3Ag     0.085056     2B1u    0.105592     2B3u    0.113520
       2B2u    0.113520     4Ag     0.462200     1B1g    0.462200
       1B3g    0.469154     1B2g    0.469154     5Ag     0.475755
       3B1u    0.637125     3B3u    0.653324     3B2u    0.653324
       6Ag     0.797339     7Ag     2.061329     2B3g    2.076324
       2B2g    2.076324     2B1g    2.123048     8Ag     2.123048
       4B1u    3.066230     4B3u    3.128874     4B2u    3.128874
       9Ag     3.670862     5B1u    6.589203     5B2u    6.599287
       5B3u    6.599287     1Au     6.629605     6B1u    6.629605
       6B2u    6.681257     6B3u    6.681257    10Ag     8.062750
       3B3g    8.086189     3B2g    8.086189     3B1g    8.158659
      11Ag     8.158659    12Ag    56.412442

    Beta Occupied:

       1Ag   -24.296364     2Ag    -1.043119     1B2u   -0.370494
       1B3u   -0.370494

    Beta Virtual:

       1B1u   -0.320834     3Ag     0.080891     2B2u    0.104757
       2B3u    0.104757     2B1u    0.121540     4Ag     0.430307
       1B3g    0.452889     1B2g    0.452889     5Ag     0.467028
       1B1g    0.467028     3B1u    0.641865     3B2u    0.654380
       3B3u    0.654380     6Ag     0.818369     7Ag     2.135858
       2B1g    2.135858     2B3g    2.146512     2B2g    2.146512
       8Ag     2.176162     4B3u    3.160966     4B2u    3.160966
       4B1u    3.208735     9Ag     3.736309     5B2u    6.692950
       5B3u    6.692950     5B1u    6.702956     1Au     6.702956
       6B2u    6.724805     6B3u    6.724805     6B1u    6.747184
      10Ag     8.205805     3B1g    8.205806     3B2g    8.240845
       3B3g    8.240845    11Ag     8.313859    12Ag    56.458521

    Final Occupation by Irrep:
             Ag   B1g   B2g   B3g    Au   B1u   B2u   B3u
    DOCC [     2,    0,    0,    0,    0,    0,    1,    1 ]
    SOCC [     0,    0,    0,    0,    0,    1,    0,    0 ]

  @DF-UKS Final Energy:   -99.71950827030696

   => Energetics <=

    Nuclear Repulsion Energy =              0.0000000000000000
    One-Electron Energy =                -139.3394068701799995
    Two-Electron Energy =                  49.9637917649316421
    DFT Exchange-Correlation Energy =     -10.3438931650585957
    Empirical Dispersion Energy =           0.0000000000000000
    VV10 Nonlocal Energy =                  0.0000000000000000
    Total Energy =                        -99.7195082703069602

  UHF NO Occupations:
  HONO-2 :    1B2u 1.9995792
  HONO-1 :    2 Ag 1.9993073
  HONO-0 :    1B1u 1.0000000
  LUNO+0 :    3 Ag 0.0006927
  LUNO+1 :    2B2u 0.0004208
  LUNO+2 :    2B3u 0.0004208
  LUNO+3 :    4 Ag 0.0000007

Computation Completed

Properties will be evaluated at   0.000000,   0.000000,   0.000000 [a0]

Properties computed using the SCF density matrix

  Nuclear Dipole Moment: [e a0]
     X:     0.0000      Y:     0.0000      Z:     0.0000

  Electronic Dipole Moment: [e a0]
     X:     0.0000      Y:     0.0000      Z:     0.0000

  Dipole Moment: [e a0]
     X:     0.0000      Y:     0.0000      Z:     0.0000     Total:     0.0000

  Dipole Moment: [D]
     X:     0.0000      Y:     0.0000      Z:     0.0000     Total:     0.0000

*** tstop() called on compute495.bc4.acrc.priv at Tue Nov  2 16:11:07 2021
Module time:
	user time   =      29.31 seconds =       0.49 minutes
	system time =       1.34 seconds =       0.02 minutes
	total time  =          1 seconds =       0.02 minutes
Total time:
	user time   =      29.31 seconds =       0.49 minutes
	system time =       1.34 seconds =       0.02 minutes
	total time  =          1 seconds =       0.02 minutes

    Psi4 stopped on: Tuesday, 02 November 2021 04:11PM
    Psi4 wall time for execution: 0:00:01.27

*** Psi4 exiting successfully. Buy a developer a beer!
