                               Psi4 1.4.1 release

  ==> Input File <==

--------------------------------------------------------------------------
memory 144 GB

molecule {
0 2
H        0.000000    0.000000    0.000000
 }

set reference uks
set basis Def2-TZVPPD

energy("GAM")
--------------------------------------------------------------------------

    Molecular point group: d2h
    Geometry (in Angstrom), charge = 0, multiplicity = 2:

       Center              X                  Y                   Z               Mass
    ------------   -----------------  -----------------  -----------------  -----------------
         H            0.000000000000     0.000000000000     0.000000000000     1.007825032230

  Charge       = 0
  Multiplicity = 2
  Basis Set: DEF2-TZVPPD
    Blend: DEF2-TZVPPD
  Basis Set: (DEF2-TZVPPD AUX)
    Blend: DEF2-UNIVERSAL-JKFIT

    Orbital Energies [Eh]
    ---------------------

    Alpha Occupied:

       1Ag    -0.276277

    Alpha Virtual:

       1B1u    0.120579     1B2u    0.120579     1B3u    0.120579
       2Ag     0.251425     2B1u    0.761121     2B2u    0.761121
       2B3u    0.761121     3Ag     2.075587     4Ag     3.076140
       5Ag     3.076140     1B1g    3.076140     1B3g    3.076140
       1B2g    3.076140     3B2u    3.603710     3B1u    3.603710
       3B3u    3.603710

    Beta Occupied:

    Beta Virtual:

       1Ag    -0.016729     1B3u    0.327386     1B2u    0.327386
       1B1u    0.327386     2Ag     0.508959     2B3u    1.014671
       2B2u    1.014671     2B1u    1.014671     3Ag     2.498180
       1B1g    3.352642     1B3g    3.352642     4Ag     3.352642
       5Ag     3.352642     1B2g    3.352642     3B1u    3.976911
       3B3u    3.976911     3B2u    3.976911

    Final Occupation by Irrep:
             Ag   B1g   B2g   B3g    Au   B1u   B2u   B3u
    DOCC [     0,    0,    0,    0,    0,    0,    0,    0 ]
    SOCC [     1,    0,    0,    0,    0,    0,    0,    0 ]

  @DF-UKS Final Energy:    -0.50089251612866

   => Energetics <=

    Nuclear Repulsion Energy =              0.0000000000000000
    One-Electron Energy =                  -0.4996279919457899
    Two-Electron Energy =                   0.3131277637397907
    DFT Exchange-Correlation Energy =      -0.3143922879226572
    Empirical Dispersion Energy =           0.0000000000000000
    VV10 Nonlocal Energy =                  0.0000000000000000
    Total Energy =                         -0.5008925161286564

  UHF NO Occupations:
  HONO-0 :    1 Ag 1.0000000
  LUNO+0 :    2 Ag 0.0000000
  LUNO+1 :    3 Ag 0.0000000
  LUNO+2 :    3B3u 0.0000000
  LUNO+3 :    2B3u 0.0000000

Computation Completed

Properties will be evaluated at   0.000000,   0.000000,   0.000000 [a0]

Properties computed using the SCF density matrix

  Nuclear Dipole Moment: [e a0]
     X:     0.0000      Y:     0.0000      Z:     0.0000

  Electronic Dipole Moment: [e a0]
     X:     0.0000      Y:     0.0000      Z:     0.0000

  Dipole Moment: [e a0]
     X:     0.0000      Y:     0.0000      Z:     0.0000     Total:     0.0000

  Dipole Moment: [D]
     X:     0.0000      Y:     0.0000      Z:     0.0000     Total:     0.0000

*** tstop() called on compute418.bc4.acrc.priv at Tue Nov  2 11:04:24 2021
Module time:
	user time   =      10.96 seconds =       0.18 minutes
	system time =       0.56 seconds =       0.01 minutes
	total time  =          1 seconds =       0.02 minutes
Total time:
	user time   =      10.96 seconds =       0.18 minutes
	system time =       0.56 seconds =       0.01 minutes
	total time  =          1 seconds =       0.02 minutes

    Psi4 stopped on: Tuesday, 02 November 2021 11:04AM
    Psi4 wall time for execution: 0:00:00.53

*** Psi4 exiting successfully. Buy a developer a beer!
