                         Program Version 4.2.0 -  RELEASE  -
|  1> #
|  2> # Ag01N0_F wB97X-V/Def2-TZVPPD
|  3> #
|  4> ! wb97x-v def2-tzvppd def2/jk grid4 nofinalgrid opt xyzfile numfreq numgrad
|  5>
|  6> *xyz 0 1
|  7> Ag       0.000000    0.000000    0.317712
|  8> F        0.000000    0.000000   -1.659163
|  9> *
| 10>
| 11> %maxcore 5000
| 12>
| 13> %pal
| 14> nprocs = 24
| 15> end
| 16>
| 17>
| 18>                          ****END OF INPUT****
 Total Charge           Charge          ....    0
 Multiplicity           Mult            ....    1
 Number of Electrons    NEL             ....   28
FINAL SINGLE POINT ENERGY      -246.804169791652
FINAL SINGLE POINT ENERGY      -246.804202967275
FINAL SINGLE POINT ENERGY      -246.804241079690
FINAL SINGLE POINT ENERGY      -246.804241131928
                    ***********************HURRAY********************

CARTESIAN COORDINATES (ANGSTROEM)
---------------------------------
  Ag     0.000000    0.000000    0.325621
  F      0.000000    0.000000   -1.667072

 Multiplicity           Mult            ....    1
 Number of Electrons    NEL             ....   28
 Basis Dimension        Dim             ....   96

ORBITAL ENERGIES
----------------

  NO   OCC          E(Eh)            E(eV)
   0   2.0000     -24.628056      -670.1635
   1   2.0000      -3.871050      -105.3366
   2   2.0000      -2.470461       -67.2247
   3   2.0000      -2.470461       -67.2247
   4   2.0000      -2.470095       -67.2147
   5   2.0000      -1.150905       -31.3177
   6   2.0000      -0.506261       -13.7761
   7   2.0000      -0.483632       -13.1603
   8   2.0000      -0.483632       -13.1603
   9   2.0000      -0.468535       -12.7495
  10   2.0000      -0.468535       -12.7495
  11   2.0000      -0.392225       -10.6730
  12   2.0000      -0.392225       -10.6730
  13   2.0000      -0.386222       -10.5096
  14   0.0000      -0.047296        -1.2870
  15   0.0000       0.051479         1.4008
  16   0.0000       0.051479         1.4008
  17   0.0000       0.086094         2.3427
  18   0.0000       0.140517         3.8237

MULLIKEN ATOMIC CHARGES
-----------------------
   0 Ag:    0.722304
   1 F :   -0.722304
Sum of atomic charges:    0.0000000

LOEWDIN ATOMIC CHARGES
----------------------
   0 Ag:    0.728017
   1 F :   -0.728017

  Mayer bond orders larger than 0.100000
B(  0-Ag,  1-F ) :   0.4497

FINAL SINGLE POINT ENERGY      -246.804241133960

DIPOLE MOMENT
-------------
                                X             Y             Z
Electronic contribution:      0.00000       0.00000      20.51775
Nuclear contribution   :      0.00000       0.00000     -18.10184
                        -----------------------------------------
Total Dipole Moment    :      0.00000       0.00000       2.41591
                        -----------------------------------------
Magnitude (a.u.)       :      2.41591
Magnitude (Debye)      :      6.14074

VIBRATIONAL FREQUENCIES
-----------------------

Scaling factor for frequencies =  1.000000000 (already applied!)

   0:         0.00 cm**-1
   1:         0.00 cm**-1
   2:         0.00 cm**-1
   3:         0.00 cm**-1
   4:         0.00 cm**-1
   5:       504.59 cm**-1

IR SPECTRUM
-----------

 Mode    freq (cm**-1)   T**2         TX         TY         TZ
-------------------------------------------------------------------
   5:       504.59   60.943972  ( -0.000002  -0.000001   7.806662)

--------------------------
THERMOCHEMISTRY AT 298.15K
--------------------------

Temperature         ... 298.15 K
Pressure            ... 1.00 atm
Total Mass          ... 126.87 AMU
The molecule is recognized as being linear

Throughout the following assumptions are being made:
  (1) The electronic state is orbitally nondegenerate
  (2) There are no thermally accessible electronically excited states
  (3) Hindered rotations indicated by low frequency modes are not
      treated as such but are treated as vibrations and this may
      cause some error
  (4) All equations used are the standard statistical mechanics
      equations for an ideal gas
  (5) All vibrations are strictly harmonic

freq.     504.59  E(vib)   ...       0.14

------------
INNER ENERGY
------------

The inner energy is: U= E(el) + E(ZPE) + E(vib) + E(rot) + E(trans)
    E(el)   - is the total energy from the electronic structure calculation
              = E(kin-el) + E(nuc-el) + E(el-el) + E(nuc-nuc)
    E(ZPE)  - the the zero temperature vibrational energy from the frequency calculation
    E(vib)  - the the finite temperature correction to E(ZPE) due to population
              of excited vibrational states
    E(rot)  - is the rotational thermal energy
    E(trans)- is the translational thermal energy

Summary of contributions to the inner energy U:
Electronic energy                ...   -246.80424113 Eh
Zero point energy                ...      0.00114955 Eh       0.72 kcal/mol
Thermal vibrational correction   ...      0.00022074 Eh       0.14 kcal/mol
Thermal rotational correction    ...      0.00094418 Eh       0.59 kcal/mol
Thermal translational correction ...      0.00141627 Eh       0.89 kcal/mol
-----------------------------------------------------------------------
Total thermal energy                   -246.80051039 Eh

Summary of corrections to the electronic energy:
(perhaps to be used in another calculation)
Total thermal correction                  0.00258120 Eh       1.62 kcal/mol
Non-thermal (ZPE) correction              0.00114955 Eh       0.72 kcal/mol
-----------------------------------------------------------------------
Total correction                          0.00373075 Eh       2.34 kcal/mol

--------
ENTHALPY
--------

The enthalpy is H = U + kB*T
                kB is Boltzmann's constant
Total free energy                 ...   -246.80051039 Eh
Thermal Enthalpy correction       ...      0.00094421 Eh       0.59 kcal/mol
-----------------------------------------------------------------------
Total Enthalpy                    ...   -246.79956618 Eh

Note: Rotational entropy computed according to Herzberg
Infrared and Raman Spectra, Chapter V,1, Van Nostrand Reinhold, 1945
Point Group:  Cinfv, Symmetry Number:   1
Rotational constants in cm-1:     0.000000     0.262821     0.262821

Vibrational entropy computed according to the QRRHO of S. Grimme
Chem.Eur.J. 2012 18 9955

-------
ENTROPY
-------

The entropy contributions are T*S = T*(S(el)+S(vib)+S(rot)+S(trans))
     S(el)   - electronic entropy
     S(vib)  - vibrational entropy
     S(rot)  - rotational entropy
     S(trans)- translational entropy
The entropies will be listed as mutliplied by the temperature to get
units of energy

Electronic entropy                ...      0.00000000 Eh      0.00 kcal/mol
Vibrational entropy               ...      0.00030774 Eh      0.19 kcal/mol
Rotational entropy                ...      0.00724195 Eh      4.54 kcal/mol
Translational entropy             ...      0.01920828 Eh     12.05 kcal/mol
-----------------------------------------------------------------------
Final entropy term                ...      0.02675798 Eh     16.79 kcal/mol

In case the symmetry of your molecule has not been determined correctly
or in case you have a reason to use a different symmetry number we print
out the resulting rotational entropy values for sn=1,12 :
 --------------------------------------------------------
|  sn= 1 | S(rot)=             -inf Eh      -inf kcal/mol|
|  sn= 2 | S(rot)=             -inf Eh      -inf kcal/mol|
|  sn= 3 | S(rot)=             -inf Eh      -inf kcal/mol|
|  sn= 4 | S(rot)=             -inf Eh      -inf kcal/mol|
|  sn= 5 | S(rot)=             -inf Eh      -inf kcal/mol|
|  sn= 6 | S(rot)=             -inf Eh      -inf kcal/mol|
|  sn= 7 | S(rot)=             -inf Eh      -inf kcal/mol|
|  sn= 8 | S(rot)=             -inf Eh      -inf kcal/mol|
|  sn= 9 | S(rot)=             -inf Eh      -inf kcal/mol|
|  sn=10 | S(rot)=             -inf Eh      -inf kcal/mol|
|  sn=11 | S(rot)=             -inf Eh      -inf kcal/mol|
|  sn=12 | S(rot)=             -inf Eh      -inf kcal/mol|
 --------------------------------------------------------

-------------------
GIBBS FREE ENERGY
-------------------

The Gibbs free energy is G = H - T*S

Total enthalpy                    ...   -246.79956618 Eh
Total entropy correction          ...     -0.02675798 Eh    -16.79 kcal/mol
-----------------------------------------------------------------------
Final Gibbs free energy         ...   -246.82632415 Eh

For completeness - the Gibbs free energy minus the electronic energy
G-E(el)                           ...     -0.02208302 Eh    -13.86 kcal/mol

                             ****ORCA TERMINATED NORMALLY****
TOTAL RUN TIME: 0 days 0 hours 5 minutes 0 seconds 401 msec
