                         Program Version 4.2.0 -  RELEASE  -
|  1> #
|  2> # Ag03N0_D3H wB97X-V/Def2-TZVPPD
|  3> #
|  4> ! wb97x-v def2-tzvppd def2/jk grid4 nofinalgrid opt xyzfile numfreq numgrad
|  5>
|  6> *xyz 0 2
|  7> Ag       0.000000    1.533951   -0.000000
|  8> Ag       1.328441   -0.766976    0.000000
|  9> Ag      -1.328441   -0.766976   -0.000000
| 10> *
| 11>
| 12> %maxcore 5000
| 13>
| 14> %pal
| 15> nprocs = 24
| 16> end
| 17>
| 18> %geom
| 19> calc_hess true
| 20> numhess true
| 21> recalc_hess 10
| 22> maxiter 100
| 23> end
| 24>
| 25>
| 26>                          ****END OF INPUT****
 Total Charge           Charge          ....    0
 Multiplicity           Mult            ....    2
 Number of Electrons    NEL             ....   57
FINAL SINGLE POINT ENERGY      -440.892276081471
ORCA finished by error termination in SCF
ORCA finished by error termination in SCF
FINAL SINGLE POINT ENERGY      -440.892247766576
FINAL SINGLE POINT ENERGY      -440.892289951239
FINAL SINGLE POINT ENERGY      -440.892289954203
FINAL SINGLE POINT ENERGY      -440.892289955273
FINAL SINGLE POINT ENERGY      -440.892289956495
FINAL SINGLE POINT ENERGY      -440.892289957562
FINAL SINGLE POINT ENERGY      -440.892289958050
FINAL SINGLE POINT ENERGY      -440.892289958728
FINAL SINGLE POINT ENERGY      -440.892289958873
FINAL SINGLE POINT ENERGY      -440.895929667638
FINAL SINGLE POINT ENERGY      -440.895929805109
FINAL SINGLE POINT ENERGY      -440.895929864767
FINAL SINGLE POINT ENERGY      -440.895929912631
FINAL SINGLE POINT ENERGY      -440.895929972016
FINAL SINGLE POINT ENERGY      -440.895930040388
FINAL SINGLE POINT ENERGY      -440.895930104794
FINAL SINGLE POINT ENERGY      -440.895990338852
FINAL SINGLE POINT ENERGY      -440.895992867786

CARTESIAN COORDINATES (ANGSTROEM)
---------------------------------
  Ag     0.121842    1.661864    0.000000
  Ag     1.253560   -0.723068    0.000000
  Ag    -1.375402   -0.938797    0.000000

 Multiplicity           Mult            ....    2
 Number of Electrons    NEL             ....   57
 Basis Dimension        Dim             ....  168

ORBITAL ENERGIES
----------------
                 SPIN UP ORBITALS
  NO   OCC          E(Eh)            E(eV)
   0   1.0000      -3.845786      -104.6492
   1   1.0000      -3.826502      -104.1244
   2   1.0000      -3.826269      -104.1181
   3   1.0000      -2.446334       -66.5681
   4   1.0000      -2.444067       -66.5064
   5   1.0000      -2.443101       -66.4802
   6   1.0000      -2.426015       -66.0152
   7   1.0000      -2.425785       -66.0090
   8   1.0000      -2.424354       -65.9700
   9   1.0000      -2.423493       -65.9466
  10   1.0000      -2.423374       -65.9434
  11   1.0000      -2.423142       -65.9370
  12   1.0000      -0.475702       -12.9445
  13   1.0000      -0.472044       -12.8450
  14   1.0000      -0.458510       -12.4767
  15   1.0000      -0.454935       -12.3794
  16   1.0000      -0.448632       -12.2079
  17   1.0000      -0.435438       -11.8489
  18   1.0000      -0.427445       -11.6314
  19   1.0000      -0.418462       -11.3869
  20   1.0000      -0.416706       -11.3391
  21   1.0000      -0.414799       -11.2873
  22   1.0000      -0.413637       -11.2556
  23   1.0000      -0.413285       -11.2461
  24   1.0000      -0.411782       -11.2052
  25   1.0000      -0.410863       -11.1802
  26   1.0000      -0.395198       -10.7539
  27   1.0000      -0.323362        -8.7991
  28   1.0000      -0.202643        -5.5142
  29   0.0000      -0.034516        -0.9392
  30   0.0000       0.020099         0.5469
  31   0.0000       0.032450         0.8830
  32   0.0000       0.051322         1.3965
  33   0.0000       0.060306         1.6410

                 SPIN DOWN ORBITALS
  NO   OCC          E(Eh)            E(eV)
   0   1.0000      -3.845546      -104.6426
   1   1.0000      -3.825473      -104.0964
   2   1.0000      -3.825233      -104.0899
   3   1.0000      -2.446032       -66.5599
   4   1.0000      -2.443353       -66.4870
   5   1.0000      -2.443201       -66.4829
   6   1.0000      -2.425251       -65.9944
   7   1.0000      -2.424953       -65.9863
   8   1.0000      -2.423492       -65.9466
   9   1.0000      -2.422554       -65.9210
  10   1.0000      -2.422539       -65.9206
  11   1.0000      -2.422290       -65.9139
  12   1.0000      -0.474538       -12.9128
  13   1.0000      -0.469994       -12.7892
  14   1.0000      -0.458229       -12.4691
  15   1.0000      -0.453822       -12.3491
  16   1.0000      -0.447813       -12.1856
  17   1.0000      -0.432550       -11.7703
  18   1.0000      -0.425280       -11.5725
  19   1.0000      -0.415898       -11.3172
  20   1.0000      -0.415596       -11.3089
  21   1.0000      -0.413065       -11.2401
  22   1.0000      -0.412256       -11.2180
  23   1.0000      -0.411910       -11.2086
  24   1.0000      -0.409310       -11.1379
  25   1.0000      -0.407794       -11.0966
  26   1.0000      -0.391754       -10.6602
  27   1.0000      -0.304460        -8.2848
  28   0.0000      -0.027127        -0.7382
  29   0.0000      -0.022769        -0.6196
  30   0.0000       0.023957         0.6519
  31   0.0000       0.049759         1.3540
  32   0.0000       0.066584         1.8118

MULLIKEN ATOMIC CHARGES AND SPIN POPULATIONS
--------------------------------------------
   0 Ag:   -0.059539    0.488788
   1 Ag:    0.117343    0.026614
   2 Ag:   -0.057804    0.484597
Sum of atomic charges         :    0.0000000

LOEWDIN ATOMIC CHARGES AND SPIN POPULATIONS
-------------------------------------------
   0 Ag:   -0.014570    0.397196
   1 Ag:    0.027805    0.208252
   2 Ag:   -0.013236    0.394552

  Mayer bond orders larger than 0.100000
B(  0-Ag,  1-Ag) :   0.6312 B(  0-Ag,  2-Ag) :   0.3557 B(  1-Ag,  2-Ag) :   0.6349

FINAL SINGLE POINT ENERGY      -440.895992922380

DIPOLE MOMENT
-------------
                                X             Y             Z
Electronic contribution:      0.20400      -0.12330      -0.00000
Nuclear contribution   :     -0.00000       0.00000       0.00000
                        -----------------------------------------
Total Dipole Moment    :      0.20400      -0.12330      -0.00000
                        -----------------------------------------
Magnitude (a.u.)       :      0.23836
Magnitude (Debye)      :      0.60587

VIBRATIONAL FREQUENCIES
-----------------------

Scaling factor for frequencies =  1.000000000 (already applied!)

   0:         0.00 cm**-1
   1:         0.00 cm**-1
   2:         0.00 cm**-1
   3:         0.00 cm**-1
   4:         0.00 cm**-1
   5:         0.00 cm**-1
   6:        61.79 cm**-1
   7:       101.75 cm**-1
   8:       174.16 cm**-1

IR SPECTRUM
-----------

 Mode    freq (cm**-1)   T**2         TX         TY         TZ
-------------------------------------------------------------------
   6:        61.79    1.266614  ( -0.948040   0.606493   0.000001)
   7:       101.75   19.468536  ( -2.227665  -3.808680   0.000009)
   8:       174.16    0.997020  (  0.851123  -0.522120  -0.000010)

--------------------------
THERMOCHEMISTRY AT 298.15K
--------------------------

Temperature         ... 298.15 K
Pressure            ... 1.00 atm
Total Mass          ... 323.61 AMU

Throughout the following assumptions are being made:
  (1) The electronic state is orbitally nondegenerate
      but the spin degeneracy is treated
  (2) There are no thermally accessible electronically excited states
  (3) Hindered rotations indicated by low frequency modes are not
      treated as such but are treated as vibrations and this may
      cause some error
  (4) All equations used are the standard statistical mechanics
      equations for an ideal gas
  (5) All vibrations are strictly harmonic

freq.      61.79  E(vib)   ...       0.51
freq.     101.75  E(vib)   ...       0.46
freq.     174.16  E(vib)   ...       0.38

------------
INNER ENERGY
------------

The inner energy is: U= E(el) + E(ZPE) + E(vib) + E(rot) + E(trans)
    E(el)   - is the total energy from the electronic structure calculation
              = E(kin-el) + E(nuc-el) + E(el-el) + E(nuc-nuc)
    E(ZPE)  - the the zero temperature vibrational energy from the frequency calculation
    E(vib)  - the the finite temperature correction to E(ZPE) due to population
              of excited vibrational states
    E(rot)  - is the rotational thermal energy
    E(trans)- is the translational thermal energy

Summary of contributions to the inner energy U:
Electronic energy                ...   -440.89599292 Eh
Zero point energy                ...      0.00076933 Eh       0.48 kcal/mol
Thermal vibrational correction   ...      0.00214410 Eh       1.35 kcal/mol
Thermal rotational correction    ...      0.00141627 Eh       0.89 kcal/mol
Thermal translational correction ...      0.00141627 Eh       0.89 kcal/mol
-----------------------------------------------------------------------
Total thermal energy                   -440.89024694 Eh

Summary of corrections to the electronic energy:
(perhaps to be used in another calculation)
Total thermal correction                  0.00497664 Eh       3.12 kcal/mol
Non-thermal (ZPE) correction              0.00076933 Eh       0.48 kcal/mol
-----------------------------------------------------------------------
Total correction                          0.00574598 Eh       3.61 kcal/mol

--------
ENTHALPY
--------

The enthalpy is H = U + kB*T
                kB is Boltzmann's constant
Total free energy                 ...   -440.89024694 Eh
Thermal Enthalpy correction       ...      0.00094421 Eh       0.59 kcal/mol
-----------------------------------------------------------------------
Total Enthalpy                    ...   -440.88930273 Eh

Note: Rotational entropy computed according to Herzberg
Infrared and Raman Spectra, Chapter V,1, Van Nostrand Reinhold, 1945
Point Group:  Cs, Symmetry Number:   1
Rotational constants in cm-1:     0.049748     0.034708     0.020445

Vibrational entropy computed according to the QRRHO of S. Grimme
Chem.Eur.J. 2012 18 9955

-------
ENTROPY
-------

The entropy contributions are T*S = T*(S(el)+S(vib)+S(rot)+S(trans))
     S(el)   - electronic entropy
     S(vib)  - vibrational entropy
     S(rot)  - rotational entropy
     S(trans)- translational entropy
The entropies will be listed as mutliplied by the temperature to get
units of energy

Electronic entropy                ...      0.00065446 Eh      0.41 kcal/mol
Vibrational entropy               ...      0.00427152 Eh      2.68 kcal/mol
Rotational entropy                ...      0.01435049 Eh      9.01 kcal/mol
Translational entropy             ...      0.02053447 Eh     12.89 kcal/mol
-----------------------------------------------------------------------
Final entropy term                ...      0.03981093 Eh     24.98 kcal/mol

In case the symmetry of your molecule has not been determined correctly
or in case you have a reason to use a different symmetry number we print
out the resulting rotational entropy values for sn=1,12 :
 --------------------------------------------------------
|  sn= 1 | S(rot)=       0.01435049 Eh      9.01 kcal/mol|
|  sn= 2 | S(rot)=       0.01369603 Eh      8.59 kcal/mol|
|  sn= 3 | S(rot)=       0.01331320 Eh      8.35 kcal/mol|
|  sn= 4 | S(rot)=       0.01304157 Eh      8.18 kcal/mol|
|  sn= 5 | S(rot)=       0.01283089 Eh      8.05 kcal/mol|
|  sn= 6 | S(rot)=       0.01265874 Eh      7.94 kcal/mol|
|  sn= 7 | S(rot)=       0.01251320 Eh      7.85 kcal/mol|
|  sn= 8 | S(rot)=       0.01238712 Eh      7.77 kcal/mol|
|  sn= 9 | S(rot)=       0.01227591 Eh      7.70 kcal/mol|
|  sn=10 | S(rot)=       0.01217643 Eh      7.64 kcal/mol|
|  sn=11 | S(rot)=       0.01208644 Eh      7.58 kcal/mol|
|  sn=12 | S(rot)=       0.01200429 Eh      7.53 kcal/mol|
 --------------------------------------------------------

-------------------
GIBBS FREE ENERGY
-------------------

The Gibbs free energy is G = H - T*S

Total enthalpy                    ...   -440.88930273 Eh
Total entropy correction          ...     -0.03981093 Eh    -24.98 kcal/mol
-----------------------------------------------------------------------
Final Gibbs free energy         ...   -440.92911367 Eh

For completeness - the Gibbs free energy minus the electronic energy
G-E(el)                           ...     -0.03312075 Eh    -20.78 kcal/mol

                             ****ORCA TERMINATED NORMALLY****
TOTAL RUN TIME: 0 days 5 hours 49 minutes 34 seconds 253 msec
