                         Program Version 4.2.0 -  RELEASE  -
|  1> #
|  2> # Ag03C1_D3H wB97X-V/Def2-TZVPPD
|  3> #
|  4> ! wb97x-v def2-tzvppd def2/jk grid4 nofinalgrid opt xyzfile numfreq numgrad
|  5>
|  6> *xyz 1 1
|  7> Ag       0.000000    1.529877    0.000000
|  8> Ag       1.324912   -0.764938    0.000000
|  9> Ag      -1.324912   -0.764938    0.000000
| 10> *
| 11>
| 12> %maxcore 5000
| 13>
| 14> %pal
| 15> nprocs = 24
| 16> end
| 17>
| 18>
| 19>                          ****END OF INPUT****
 Total Charge           Charge          ....    1
 Multiplicity           Mult            ....    1
 Number of Electrons    NEL             ....   56
FINAL SINGLE POINT ENERGY      -440.700950125922
FINAL SINGLE POINT ENERGY      -440.701032240992
FINAL SINGLE POINT ENERGY      -440.701508331921
FINAL SINGLE POINT ENERGY      -440.701513782027
                    ***********************HURRAY********************

CARTESIAN COORDINATES (ANGSTROEM)
---------------------------------
  Ag     0.000000    1.558696    0.000000
  Ag     1.348623   -0.779348    0.000000
  Ag    -1.348623   -0.779348    0.000000

 Multiplicity           Mult            ....    1
 Number of Electrons    NEL             ....   56
 Basis Dimension        Dim             ....  168

ORBITAL ENERGIES
----------------

  NO   OCC          E(Eh)            E(eV)
   0   2.0000      -4.026089      -109.5554
   1   2.0000      -4.025713      -109.5452
   2   2.0000      -4.025704      -109.5450
   3   2.0000      -2.628462       -71.5241
   4   2.0000      -2.626548       -71.4720
   5   2.0000      -2.626540       -71.4718
   6   2.0000      -2.624093       -71.4052
   7   2.0000      -2.623416       -71.3868
   8   2.0000      -2.623412       -71.3867
   9   2.0000      -2.623143       -71.3793
  10   2.0000      -2.622730       -71.3681
  11   2.0000      -2.622715       -71.3677
  12   2.0000      -0.668774       -18.1983
  13   2.0000      -0.653010       -17.7693
  14   2.0000      -0.652908       -17.7665
  15   2.0000      -0.647891       -17.6300
  16   2.0000      -0.634258       -17.2590
  17   2.0000      -0.631111       -17.1734
  18   2.0000      -0.631074       -17.1724
  19   2.0000      -0.612201       -16.6588
  20   2.0000      -0.612133       -16.6570
  21   2.0000      -0.609175       -16.5765
  22   2.0000      -0.605262       -16.4700
  23   2.0000      -0.605240       -16.4694
  24   2.0000      -0.604353       -16.4453
  25   2.0000      -0.604282       -16.4434
  26   2.0000      -0.585144       -15.9226
  27   2.0000      -0.492615       -13.4047
  28   0.0000      -0.191846        -5.2204
  29   0.0000      -0.191765        -5.2182
  30   0.0000      -0.131425        -3.5763
  31   0.0000      -0.099907        -2.7186
  32   0.0000      -0.083120        -2.2618

MULLIKEN ATOMIC CHARGES
-----------------------
   0 Ag:    0.333619
   1 Ag:    0.333190
   2 Ag:    0.333191
Sum of atomic charges:    1.0000000

LOEWDIN ATOMIC CHARGES
----------------------
   0 Ag:    0.333545
   1 Ag:    0.333227
   2 Ag:    0.333228

  Mayer bond orders larger than 0.100000
B(  0-Ag,  1-Ag) :   0.5199 B(  0-Ag,  2-Ag) :   0.5199 B(  1-Ag,  2-Ag) :   0.5204

FINAL SINGLE POINT ENERGY      -440.701513823306

DIPOLE MOMENT
-------------
                                X             Y             Z
Electronic contribution:     -0.00000       0.00095      -0.00000
Nuclear contribution   :     -0.00000       0.00000       0.00000
                        -----------------------------------------
Total Dipole Moment    :     -0.00000       0.00095      -0.00000
                        -----------------------------------------
Magnitude (a.u.)       :      0.00095
Magnitude (Debye)      :      0.00241

VIBRATIONAL FREQUENCIES
-----------------------

Scaling factor for frequencies =  1.000000000 (already applied!)

   0:         0.00 cm**-1
   1:         0.00 cm**-1
   2:         0.00 cm**-1
   3:         0.00 cm**-1
   4:         0.00 cm**-1
   5:         0.00 cm**-1
   6:       119.80 cm**-1
   7:       120.87 cm**-1
   8:       174.78 cm**-1

IR SPECTRUM
-----------

 Mode    freq (cm**-1)   T**2         TX         TY         TZ
-------------------------------------------------------------------
   6:       119.80    1.256604  ( -1.120983  -0.001169   0.000000)
   7:       120.87    1.389955  ( -0.001128   1.178963  -0.000000)
   8:       174.78    0.000060  ( -0.000015   0.007715  -0.000002)

--------------------------
THERMOCHEMISTRY AT 298.15K
--------------------------

Temperature         ... 298.15 K
Pressure            ... 1.00 atm
Total Mass          ... 323.61 AMU

Throughout the following assumptions are being made:
  (1) The electronic state is orbitally nondegenerate
  (2) There are no thermally accessible electronically excited states
  (3) Hindered rotations indicated by low frequency modes are not
      treated as such but are treated as vibrations and this may
      cause some error
  (4) All equations used are the standard statistical mechanics
      equations for an ideal gas
  (5) All vibrations are strictly harmonic

freq.     119.80  E(vib)   ...       0.44
freq.     120.87  E(vib)   ...       0.44
freq.     174.78  E(vib)   ...       0.38

------------
INNER ENERGY
------------

The inner energy is: U= E(el) + E(ZPE) + E(vib) + E(rot) + E(trans)
    E(el)   - is the total energy from the electronic structure calculation
              = E(kin-el) + E(nuc-el) + E(el-el) + E(nuc-nuc)
    E(ZPE)  - the the zero temperature vibrational energy from the frequency calculation
    E(vib)  - the the finite temperature correction to E(ZPE) due to population
              of excited vibrational states
    E(rot)  - is the rotational thermal energy
    E(trans)- is the translational thermal energy

Summary of contributions to the inner energy U:
Electronic energy                ...   -440.70151383 Eh
Zero point energy                ...      0.00094646 Eh       0.59 kcal/mol
Thermal vibrational correction   ...      0.00199426 Eh       1.25 kcal/mol
Thermal rotational correction    ...      0.00141627 Eh       0.89 kcal/mol
Thermal translational correction ...      0.00141627 Eh       0.89 kcal/mol
-----------------------------------------------------------------------
Total thermal energy                   -440.69574057 Eh

Summary of corrections to the electronic energy:
(perhaps to be used in another calculation)
Total thermal correction                  0.00482680 Eh       3.03 kcal/mol
Non-thermal (ZPE) correction              0.00094646 Eh       0.59 kcal/mol
-----------------------------------------------------------------------
Total correction                          0.00577326 Eh       3.62 kcal/mol

--------
ENTHALPY
--------

The enthalpy is H = U + kB*T
                kB is Boltzmann's constant
Total free energy                 ...   -440.69574057 Eh
Thermal Enthalpy correction       ...      0.00094421 Eh       0.59 kcal/mol
-----------------------------------------------------------------------
Total Enthalpy                    ...   -440.69479636 Eh

Note: Rotational entropy computed according to Herzberg
Infrared and Raman Spectra, Chapter V,1, Van Nostrand Reinhold, 1945
Point Group:  C2v, Symmetry Number:   2
Rotational constants in cm-1:     0.042962     0.042883     0.021461

Vibrational entropy computed according to the QRRHO of S. Grimme
Chem.Eur.J. 2012 18 9955

-------
ENTROPY
-------

The entropy contributions are T*S = T*(S(el)+S(vib)+S(rot)+S(trans))
     S(el)   - electronic entropy
     S(vib)  - vibrational entropy
     S(rot)  - rotational entropy
     S(trans)- translational entropy
The entropies will be listed as mutliplied by the temperature to get
units of energy

Electronic entropy                ...      0.00000000 Eh      0.00 kcal/mol
Vibrational entropy               ...      0.00393972 Eh      2.47 kcal/mol
Rotational entropy                ...      0.01364252 Eh      8.56 kcal/mol
Translational entropy             ...      0.02053447 Eh     12.89 kcal/mol
-----------------------------------------------------------------------
Final entropy term                ...      0.03811671 Eh     23.92 kcal/mol

In case the symmetry of your molecule has not been determined correctly
or in case you have a reason to use a different symmetry number we print
out the resulting rotational entropy values for sn=1,12 :
 --------------------------------------------------------
|  sn= 1 | S(rot)=       0.01429697 Eh      8.97 kcal/mol|
|  sn= 2 | S(rot)=       0.01364252 Eh      8.56 kcal/mol|
|  sn= 3 | S(rot)=       0.01325969 Eh      8.32 kcal/mol|
|  sn= 4 | S(rot)=       0.01298806 Eh      8.15 kcal/mol|
|  sn= 5 | S(rot)=       0.01277737 Eh      8.02 kcal/mol|
|  sn= 6 | S(rot)=       0.01260523 Eh      7.91 kcal/mol|
|  sn= 7 | S(rot)=       0.01245968 Eh      7.82 kcal/mol|
|  sn= 8 | S(rot)=       0.01233360 Eh      7.74 kcal/mol|
|  sn= 9 | S(rot)=       0.01222240 Eh      7.67 kcal/mol|
|  sn=10 | S(rot)=       0.01212292 Eh      7.61 kcal/mol|
|  sn=11 | S(rot)=       0.01203293 Eh      7.55 kcal/mol|
|  sn=12 | S(rot)=       0.01195077 Eh      7.50 kcal/mol|
 --------------------------------------------------------

-------------------
GIBBS FREE ENERGY
-------------------

The Gibbs free energy is G = H - T*S

Total enthalpy                    ...   -440.69479636 Eh
Total entropy correction          ...     -0.03811671 Eh    -23.92 kcal/mol
-----------------------------------------------------------------------
Final Gibbs free energy         ...   -440.73291307 Eh

For completeness - the Gibbs free energy minus the electronic energy
G-E(el)                           ...     -0.03139925 Eh    -19.70 kcal/mol

                             ****ORCA TERMINATED NORMALLY****
TOTAL RUN TIME: 0 days 0 hours 34 minutes 51 seconds 847 msec
