                         Program Version 4.2.0 -  RELEASE  -
|  1> #
|  2> # Ag03C1_LIN wB97X-V/Def2-TZVPPD
|  3> #
|  4> ! wb97x-v def2-tzvppd def2/jk grid4 nofinalgrid opt xyzfile numfreq numgrad
|  5>
|  6> *xyz 1 1
|  7> Ag       0.000000    0.000000    0.000000
|  8> Ag       0.000000    0.000000    2.629319
|  9> Ag       0.000000    0.000000   -2.629319
| 10> *
| 11>
| 12> %maxcore 5000
| 13>
| 14> %pal
| 15> nprocs = 24
| 16> end
| 17>
| 18>
| 19>                          ****END OF INPUT****
 Total Charge           Charge          ....    1
 Multiplicity           Mult            ....    1
 Number of Electrons    NEL             ....   56
FINAL SINGLE POINT ENERGY      -440.638751282294
FINAL SINGLE POINT ENERGY      -440.638771955124
FINAL SINGLE POINT ENERGY      -440.638905721769
FINAL SINGLE POINT ENERGY      -440.638906400692
                    ***********************HURRAY********************

CARTESIAN COORDINATES (ANGSTROEM)
---------------------------------
  Ag     0.000000    0.000000   -0.000000
  Ag    -0.000000   -0.000000    2.660594
  Ag    -0.000000   -0.000000   -2.660594

 Multiplicity           Mult            ....    1
 Number of Electrons    NEL             ....   56
 Basis Dimension        Dim             ....  168

ORBITAL ENERGIES
----------------

  NO   OCC          E(Eh)            E(eV)
   0   2.0000      -4.036082      -109.8274
   1   2.0000      -4.036081      -109.8273
   2   2.0000      -3.983919      -108.4079
   3   2.0000      -2.637025       -71.7571
   4   2.0000      -2.636850       -71.7523
   5   2.0000      -2.635147       -71.7060
   6   2.0000      -2.635147       -71.7060
   7   2.0000      -2.635123       -71.7053
   8   2.0000      -2.635123       -71.7053
   9   2.0000      -2.586715       -70.3881
  10   2.0000      -2.579577       -70.1939
  11   2.0000      -2.579577       -70.1939
  12   2.0000      -0.664055       -18.0699
  13   2.0000      -0.643701       -17.5160
  14   2.0000      -0.643701       -17.5160
  15   2.0000      -0.638131       -17.3644
  16   2.0000      -0.635857       -17.3025
  17   2.0000      -0.635857       -17.3025
  18   2.0000      -0.632819       -17.2199
  19   2.0000      -0.632818       -17.2199
  20   2.0000      -0.632529       -17.2120
  21   2.0000      -0.632528       -17.2119
  22   2.0000      -0.574411       -15.6305
  23   2.0000      -0.574410       -15.6305
  24   2.0000      -0.574389       -15.6299
  25   2.0000      -0.574389       -15.6299
  26   2.0000      -0.569055       -15.4848
  27   2.0000      -0.440015       -11.9734
  28   0.0000      -0.250608        -6.8194
  29   0.0000      -0.150594        -4.0979
  30   0.0000      -0.115937        -3.1548
  31   0.0000      -0.115937        -3.1548
  32   0.0000      -0.084678        -2.3042

MULLIKEN ATOMIC CHARGES
-----------------------
   0 Ag:   -0.157700
   1 Ag:    0.578849
   2 Ag:    0.578850
Sum of atomic charges:    1.0000000

LOEWDIN ATOMIC CHARGES
----------------------
   0 Ag:    0.093504
   1 Ag:    0.453248
   2 Ag:    0.453248

  Mayer bond orders larger than 0.100000
B(  0-Ag,  1-Ag) :   0.5470 B(  0-Ag,  2-Ag) :   0.5470 B(  1-Ag,  2-Ag) :   0.1970

FINAL SINGLE POINT ENERGY      -440.638906408350

DIPOLE MOMENT
-------------
                                X             Y             Z
Electronic contribution:     -0.00000      -0.00000      -0.00000
Nuclear contribution   :     -0.00000       0.00000       0.00000
                        -----------------------------------------
Total Dipole Moment    :     -0.00000      -0.00000      -0.00000
                        -----------------------------------------
Magnitude (a.u.)       :      0.00000
Magnitude (Debye)      :      0.00000

VIBRATIONAL FREQUENCIES
-----------------------

Scaling factor for frequencies =  1.000000000 (already applied!)

   0:         0.00 cm**-1
   1:         0.00 cm**-1
   2:         0.00 cm**-1
   3:         0.00 cm**-1
   4:         0.00 cm**-1
   5:       -51.97 cm**-1 ***imaginary mode***
   6:       -51.96 cm**-1 ***imaginary mode***
   7:       101.94 cm**-1
   8:       169.74 cm**-1

IR SPECTRUM
-----------

 Mode    freq (cm**-1)   T**2         TX         TY         TZ
-------------------------------------------------------------------
   7:       101.94    0.000000  ( -0.000004   0.000006   0.000028)
   8:       169.74   33.308147  ( -0.000001   0.000003  -5.771321)

--------------------------
THERMOCHEMISTRY AT 298.15K
--------------------------

Temperature         ... 298.15 K
Pressure            ... 1.00 atm
Total Mass          ... 323.61 AMU
The molecule is recognized as being linear

Throughout the following assumptions are being made:
  (1) The electronic state is orbitally nondegenerate
  (2) There are no thermally accessible electronically excited states
  (3) Hindered rotations indicated by low frequency modes are not
      treated as such but are treated as vibrations and this may
      cause some error
  (4) All equations used are the standard statistical mechanics
      equations for an ideal gas
  (5) All vibrations are strictly harmonic

freq.     101.94  E(vib)   ...       0.46
freq.     169.74  E(vib)   ...       0.38

------------
INNER ENERGY
------------

The inner energy is: U= E(el) + E(ZPE) + E(vib) + E(rot) + E(trans)
    E(el)   - is the total energy from the electronic structure calculation
              = E(kin-el) + E(nuc-el) + E(el-el) + E(nuc-nuc)
    E(ZPE)  - the the zero temperature vibrational energy from the frequency calculation
    E(vib)  - the the finite temperature correction to E(ZPE) due to population
              of excited vibrational states
    E(rot)  - is the rotational thermal energy
    E(trans)- is the translational thermal energy

Summary of contributions to the inner energy U:
Electronic energy                ...   -440.63890641 Eh
Zero point energy                ...      0.00061892 Eh       0.39 kcal/mol
Thermal vibrational correction   ...      0.00134067 Eh       0.84 kcal/mol
Thermal rotational correction    ...      0.00094418 Eh       0.59 kcal/mol
Thermal translational correction ...      0.00141627 Eh       0.89 kcal/mol
-----------------------------------------------------------------------
Total thermal energy                   -440.63458637 Eh

Summary of corrections to the electronic energy:
(perhaps to be used in another calculation)
Total thermal correction                  0.00370112 Eh       2.32 kcal/mol
Non-thermal (ZPE) correction              0.00061892 Eh       0.39 kcal/mol
-----------------------------------------------------------------------
Total correction                          0.00432004 Eh       2.71 kcal/mol

--------
ENTHALPY
--------

The enthalpy is H = U + kB*T
                kB is Boltzmann's constant
Total free energy                 ...   -440.63458637 Eh
Thermal Enthalpy correction       ...      0.00094421 Eh       0.59 kcal/mol
-----------------------------------------------------------------------
Total Enthalpy                    ...   -440.63364216 Eh

Note: Rotational entropy computed according to Herzberg
Infrared and Raman Spectra, Chapter V,1, Van Nostrand Reinhold, 1945
Point Group:  Dinfh, Symmetry Number:   2
Rotational constants in cm-1:     0.000000     0.011038     0.011038

Vibrational entropy computed according to the QRRHO of S. Grimme
Chem.Eur.J. 2012 18 9955

-------
ENTROPY
-------

The entropy contributions are T*S = T*(S(el)+S(vib)+S(rot)+S(trans))
     S(el)   - electronic entropy
     S(vib)  - vibrational entropy
     S(rot)  - rotational entropy
     S(trans)- translational entropy
The entropies will be listed as mutliplied by the temperature to get
units of energy

Electronic entropy                ...      0.00000000 Eh      0.00 kcal/mol
Vibrational entropy               ...      0.00264382 Eh      1.66 kcal/mol
Rotational entropy                ...      0.00958063 Eh      6.01 kcal/mol
Translational entropy             ...      0.02053447 Eh     12.89 kcal/mol
-----------------------------------------------------------------------
Final entropy term                ...      0.03275892 Eh     20.56 kcal/mol

In case the symmetry of your molecule has not been determined correctly
or in case you have a reason to use a different symmetry number we print
out the resulting rotational entropy values for sn=1,12 :
 --------------------------------------------------------
|  sn= 1 | S(rot)=      -0.00162574 Eh     -1.02 kcal/mol|
|  sn= 2 | S(rot)=      -0.00228020 Eh     -1.43 kcal/mol|
|  sn= 3 | S(rot)=      -0.00266303 Eh     -1.67 kcal/mol|
|  sn= 4 | S(rot)=      -0.00293465 Eh     -1.84 kcal/mol|
|  sn= 5 | S(rot)=      -0.00314534 Eh     -1.97 kcal/mol|
|  sn= 6 | S(rot)=      -0.00331749 Eh     -2.08 kcal/mol|
|  sn= 7 | S(rot)=      -0.00346303 Eh     -2.17 kcal/mol|
|  sn= 8 | S(rot)=      -0.00358911 Eh     -2.25 kcal/mol|
|  sn= 9 | S(rot)=      -0.00370032 Eh     -2.32 kcal/mol|
|  sn=10 | S(rot)=      -0.00379980 Eh     -2.38 kcal/mol|
|  sn=11 | S(rot)=      -0.00388979 Eh     -2.44 kcal/mol|
|  sn=12 | S(rot)=      -0.00397194 Eh     -2.49 kcal/mol|
 --------------------------------------------------------

-------------------
GIBBS FREE ENERGY
-------------------

The Gibbs free energy is G = H - T*S

Total enthalpy                    ...   -440.63364216 Eh
Total entropy correction          ...     -0.03275892 Eh    -20.56 kcal/mol
-----------------------------------------------------------------------
Final Gibbs free energy         ...   -440.66640108 Eh

For completeness - the Gibbs free energy minus the electronic energy
G-E(el)                           ...     -0.02749467 Eh    -17.25 kcal/mol

                             ****ORCA TERMINATED NORMALLY****
TOTAL RUN TIME: 0 days 0 hours 20 minutes 32 seconds 785 msec
