                         Program Version 4.2.0 -  RELEASE  -
|  1> #
|  2> # Ag03N0_LIN wB97X-V/Def2-TZVPPD
|  3> #
|  4> ! wb97x-v def2-tzvppd def2/jk grid4 nofinalgrid opt xyzfile numfreq numgrad
|  5>
|  6> *xyz 0 2
|  7> Ag       0.000000    0.000000    0.000000
|  8> Ag       0.000000    0.000000    2.592532
|  9> Ag       0.000000    0.000000   -2.592532
| 10> *
| 11>
| 12> %maxcore 5000
| 13>
| 14> %pal
| 15> nprocs = 24
| 16> end
| 17>
| 18>
| 19>                          ****END OF INPUT****
 Total Charge           Charge          ....    0
 Multiplicity           Mult            ....    2
 Number of Electrons    NEL             ....   57
FINAL SINGLE POINT ENERGY      -440.889646947678
FINAL SINGLE POINT ENERGY      -440.889711215829
FINAL SINGLE POINT ENERGY      -440.890094828387
FINAL SINGLE POINT ENERGY      -440.890099997813
                    ***********************HURRAY********************

CARTESIAN COORDINATES (ANGSTROEM)
---------------------------------
  Ag    -0.000000    0.000000    0.000000
  Ag     0.000000   -0.000000    2.641627
  Ag     0.000000   -0.000000   -2.641627

 Multiplicity           Mult            ....    2
 Number of Electrons    NEL             ....   57
 Basis Dimension        Dim             ....  168

ORBITAL ENERGIES
----------------
                 SPIN UP ORBITALS
  NO   OCC          E(Eh)            E(eV)
   0   1.0000      -3.835319      -104.3643
   1   1.0000      -3.835317      -104.3643
   2   1.0000      -3.815482      -103.8246
   3   1.0000      -2.435972       -66.2862
   4   1.0000      -2.435371       -66.2698
   5   1.0000      -2.432964       -66.2043
   6   1.0000      -2.432964       -66.2043
   7   1.0000      -2.432961       -66.2042
   8   1.0000      -2.432961       -66.2042
   9   1.0000      -2.415803       -65.7373
  10   1.0000      -2.412142       -65.6377
  11   1.0000      -2.412142       -65.6377
  12   1.0000      -0.474730       -12.9181
  13   1.0000      -0.451259       -12.2794
  14   1.0000      -0.451259       -12.2794
  15   1.0000      -0.437713       -11.9108
  16   1.0000      -0.435813       -11.8591
  17   1.0000      -0.435813       -11.8591
  18   1.0000      -0.432625       -11.7723
  19   1.0000      -0.432624       -11.7723
  20   1.0000      -0.431791       -11.7496
  21   1.0000      -0.431790       -11.7496
  22   1.0000      -0.407260       -11.0821
  23   1.0000      -0.407260       -11.0821
  24   1.0000      -0.396131       -10.7793
  25   1.0000      -0.396131       -10.7793
  26   1.0000      -0.389324       -10.5940
  27   1.0000      -0.298805        -8.1309
  28   1.0000      -0.254744        -6.9319
  29   0.0000      -0.011924        -0.3245
  30   0.0000       0.026319         0.7162
  31   0.0000       0.026319         0.7162
  32   0.0000       0.050746         1.3809
  33   0.0000       0.059285         1.6132

                 SPIN DOWN ORBITALS
  NO   OCC          E(Eh)            E(eV)
   0   1.0000      -3.834368      -104.3384
   1   1.0000      -3.834366      -104.3384
   2   1.0000      -3.815976      -103.8380
   3   1.0000      -2.435306       -66.2680
   4   1.0000      -2.434734       -66.2525
   5   1.0000      -2.432303       -66.1863
   6   1.0000      -2.432303       -66.1863
   7   1.0000      -2.432280       -66.1857
   8   1.0000      -2.432280       -66.1857
   9   1.0000      -2.415804       -65.7374
  10   1.0000      -2.412805       -65.6557
  11   1.0000      -2.412805       -65.6557
  12   1.0000      -0.471621       -12.8335
  13   1.0000      -0.448736       -12.2107
  14   1.0000      -0.448736       -12.2107
  15   1.0000      -0.435519       -11.8511
  16   1.0000      -0.433007       -11.7827
  17   1.0000      -0.433007       -11.7827
  18   1.0000      -0.429790       -11.6952
  19   1.0000      -0.429788       -11.6951
  20   1.0000      -0.428806       -11.6684
  21   1.0000      -0.428804       -11.6684
  22   1.0000      -0.408187       -11.1073
  23   1.0000      -0.408186       -11.1073
  24   1.0000      -0.396134       -10.7794
  25   1.0000      -0.396134       -10.7794
  26   1.0000      -0.386423       -10.5151
  27   1.0000      -0.267220        -7.2714
  28   0.0000      -0.070451        -1.9171
  29   0.0000       0.007240         0.1970
  30   0.0000       0.031433         0.8553
  31   0.0000       0.031433         0.8553
  32   0.0000       0.065860         1.7921

MULLIKEN ATOMIC CHARGES AND SPIN POPULATIONS
--------------------------------------------
   0 Ag:   -0.068465   -0.182009
   1 Ag:    0.034233    0.591005
   2 Ag:    0.034233    0.591004
Sum of atomic charges         :   -0.0000000

LOEWDIN ATOMIC CHARGES AND SPIN POPULATIONS
-------------------------------------------
   0 Ag:   -0.200955    0.253702
   1 Ag:    0.100477    0.373149
   2 Ag:    0.100477    0.373149

  Mayer bond orders larger than 0.100000
B(  0-Ag,  1-Ag) :   0.5933 B(  0-Ag,  2-Ag) :   0.5933 B(  1-Ag,  2-Ag) :   0.1077

FINAL SINGLE POINT ENERGY      -440.890100043599

DIPOLE MOMENT
-------------
                                X             Y             Z
Electronic contribution:      0.00000       0.00000       0.00000
Nuclear contribution   :     -0.00000       0.00000       0.00000
                        -----------------------------------------
Total Dipole Moment    :      0.00000       0.00000       0.00000
                        -----------------------------------------
Magnitude (a.u.)       :      0.00000
Magnitude (Debye)      :      0.00000

VIBRATIONAL FREQUENCIES
-----------------------

Scaling factor for frequencies =  1.000000000 (already applied!)

   0:         0.00 cm**-1
   1:         0.00 cm**-1
   2:         0.00 cm**-1
   3:         0.00 cm**-1
   4:         0.00 cm**-1
   5:       -23.51 cm**-1 ***imaginary mode***
   6:       -23.50 cm**-1 ***imaginary mode***
   7:       109.23 cm**-1
   8:       165.08 cm**-1

IR SPECTRUM
-----------

 Mode    freq (cm**-1)   T**2         TX         TY         TZ
-------------------------------------------------------------------
   7:       109.23    0.000000  (  0.000003   0.000003   0.000012)
   8:       165.08   12.345703  ( -0.000011   0.000008  -3.513645)

--------------------------
THERMOCHEMISTRY AT 298.15K
--------------------------

Temperature         ... 298.15 K
Pressure            ... 1.00 atm
Total Mass          ... 323.61 AMU
The molecule is recognized as being linear

Throughout the following assumptions are being made:
  (1) The electronic state is orbitally nondegenerate
      but the spin degeneracy is treated
  (2) There are no thermally accessible electronically excited states
  (3) Hindered rotations indicated by low frequency modes are not
      treated as such but are treated as vibrations and this may
      cause some error
  (4) All equations used are the standard statistical mechanics
      equations for an ideal gas
  (5) All vibrations are strictly harmonic

freq.     109.23  E(vib)   ...       0.45
freq.     165.08  E(vib)   ...       0.39

------------
INNER ENERGY
------------

The inner energy is: U= E(el) + E(ZPE) + E(vib) + E(rot) + E(trans)
    E(el)   - is the total energy from the electronic structure calculation
              = E(kin-el) + E(nuc-el) + E(el-el) + E(nuc-nuc)
    E(ZPE)  - the the zero temperature vibrational energy from the frequency calculation
    E(vib)  - the the finite temperature correction to E(ZPE) due to population
              of excited vibrational states
    E(rot)  - is the rotational thermal energy
    E(trans)- is the translational thermal energy

Summary of contributions to the inner energy U:
Electronic energy                ...   -440.89010005 Eh
Zero point energy                ...      0.00062491 Eh       0.39 kcal/mol
Thermal vibrational correction   ...      0.00133468 Eh       0.84 kcal/mol
Thermal rotational correction    ...      0.00094418 Eh       0.59 kcal/mol
Thermal translational correction ...      0.00141627 Eh       0.89 kcal/mol
-----------------------------------------------------------------------
Total thermal energy                   -440.88578001 Eh

Summary of corrections to the electronic energy:
(perhaps to be used in another calculation)
Total thermal correction                  0.00369513 Eh       2.32 kcal/mol
Non-thermal (ZPE) correction              0.00062491 Eh       0.39 kcal/mol
-----------------------------------------------------------------------
Total correction                          0.00432004 Eh       2.71 kcal/mol

--------
ENTHALPY
--------

The enthalpy is H = U + kB*T
                kB is Boltzmann's constant
Total free energy                 ...   -440.88578001 Eh
Thermal Enthalpy correction       ...      0.00094421 Eh       0.59 kcal/mol
-----------------------------------------------------------------------
Total Enthalpy                    ...   -440.88483580 Eh

Note: Rotational entropy computed according to Herzberg
Infrared and Raman Spectra, Chapter V,1, Van Nostrand Reinhold, 1945
Point Group:  Dinfh, Symmetry Number:   2
Rotational constants in cm-1:     0.000000     0.011198     0.011198

Vibrational entropy computed according to the QRRHO of S. Grimme
Chem.Eur.J. 2012 18 9955

-------
ENTROPY
-------

The entropy contributions are T*S = T*(S(el)+S(vib)+S(rot)+S(trans))
     S(el)   - electronic entropy
     S(vib)  - vibrational entropy
     S(rot)  - rotational entropy
     S(trans)- translational entropy
The entropies will be listed as mutliplied by the temperature to get
units of energy

Electronic entropy                ...      0.00065446 Eh      0.41 kcal/mol
Vibrational entropy               ...      0.00263464 Eh      1.65 kcal/mol
Rotational entropy                ...      0.00956712 Eh      6.00 kcal/mol
Translational entropy             ...      0.02053447 Eh     12.89 kcal/mol
-----------------------------------------------------------------------
Final entropy term                ...      0.03339069 Eh     20.95 kcal/mol

In case the symmetry of your molecule has not been determined correctly
or in case you have a reason to use a different symmetry number we print
out the resulting rotational entropy values for sn=1,12 :
 --------------------------------------------------------
|  sn= 1 | S(rot)=      -0.00188355 Eh     -1.18 kcal/mol|
|  sn= 2 | S(rot)=      -0.00253801 Eh     -1.59 kcal/mol|
|  sn= 3 | S(rot)=      -0.00292084 Eh     -1.83 kcal/mol|
|  sn= 4 | S(rot)=      -0.00319247 Eh     -2.00 kcal/mol|
|  sn= 5 | S(rot)=      -0.00340315 Eh     -2.14 kcal/mol|
|  sn= 6 | S(rot)=      -0.00357530 Eh     -2.24 kcal/mol|
|  sn= 7 | S(rot)=      -0.00372084 Eh     -2.33 kcal/mol|
|  sn= 8 | S(rot)=      -0.00384692 Eh     -2.41 kcal/mol|
|  sn= 9 | S(rot)=      -0.00395813 Eh     -2.48 kcal/mol|
|  sn=10 | S(rot)=      -0.00405761 Eh     -2.55 kcal/mol|
|  sn=11 | S(rot)=      -0.00414760 Eh     -2.60 kcal/mol|
|  sn=12 | S(rot)=      -0.00422975 Eh     -2.65 kcal/mol|
 --------------------------------------------------------

-------------------
GIBBS FREE ENERGY
-------------------

The Gibbs free energy is G = H - T*S

Total enthalpy                    ...   -440.88483580 Eh
Total entropy correction          ...     -0.03339069 Eh    -20.95 kcal/mol
-----------------------------------------------------------------------
Final Gibbs free energy         ...   -440.91822649 Eh

For completeness - the Gibbs free energy minus the electronic energy
G-E(el)                           ...     -0.02812644 Eh    -17.65 kcal/mol

                             ****ORCA TERMINATED NORMALLY****
TOTAL RUN TIME: 0 days 0 hours 28 minutes 25 seconds 578 msec
