                         Program Version 4.2.0 -  RELEASE  -
|  1> #
|  2> # Au02N0 wB97X-V/Def2-TZVPPD
|  3> #
|  4> ! wb97x-v def2-tzvppd def2/jk grid4 nofinalgrid opt xyzfile numfreq numgrad
|  5>
|  6> *xyz 0 1
|  7> Au       0.000000    0.000000    1.239541
|  8> Au       0.000000    0.000000   -1.239541
|  9> *
| 10>
| 11> %maxcore 5000
| 12>
| 13> %pal
| 14> nprocs = 24
| 15> end
| 16>
| 17>
| 18>                          ****END OF INPUT****
 Total Charge           Charge          ....    0
 Multiplicity           Mult            ....    1
 Number of Electrons    NEL             ....   38
FINAL SINGLE POINT ENERGY      -271.407415963962
FINAL SINGLE POINT ENERGY      -271.404951973634
FINAL SINGLE POINT ENERGY      -271.407657564038
FINAL SINGLE POINT ENERGY      -271.407704382421
FINAL SINGLE POINT ENERGY      -271.407710215095
                    ***********************HURRAY********************

CARTESIAN COORDINATES (ANGSTROEM)
---------------------------------
  Au     0.000000    0.000000    1.257349
  Au     0.000000    0.000000   -1.257349

 Multiplicity           Mult            ....    1
 Number of Electrons    NEL             ....   38
 Basis Dimension        Dim             ....  118

ORBITAL ENERGIES
----------------

  NO   OCC          E(Eh)            E(eV)
   0   2.0000      -4.243571      -115.4734
   1   2.0000      -4.243008      -115.4581
   2   2.0000      -2.436401       -66.2978
   3   2.0000      -2.424843       -65.9833
   4   2.0000      -2.422011       -65.9063
   5   2.0000      -2.422011       -65.9063
   6   2.0000      -2.421098       -65.8814
   7   2.0000      -2.421098       -65.8814
   8   2.0000      -0.466531       -12.6949
   9   2.0000      -0.437723       -11.9111
  10   2.0000      -0.437723       -11.9111
  11   2.0000      -0.401332       -10.9208
  12   2.0000      -0.401323       -10.9206
  13   2.0000      -0.388228       -10.5642
  14   2.0000      -0.388219       -10.5640
  15   2.0000      -0.372084       -10.1249
  16   2.0000      -0.372084       -10.1249
  17   2.0000      -0.365824        -9.9546
  18   2.0000      -0.327689        -8.9169
  19   0.0000      -0.052250        -1.4218
  20   0.0000       0.037939         1.0324
  21   0.0000       0.037939         1.0324
  22   0.0000       0.059430         1.6172
  23   0.0000       0.104015         2.8304

MULLIKEN ATOMIC CHARGES
-----------------------
   0 Au:   -0.000001
   1 Au:    0.000001
Sum of atomic charges:    0.0000000

LOEWDIN ATOMIC CHARGES
----------------------
   0 Au:   -0.000000
   1 Au:    0.000000

  Mayer bond orders larger than 0.100000
B(  0-Au,  1-Au) :   1.1036

FINAL SINGLE POINT ENERGY      -271.407710216930

DIPOLE MOMENT
-------------
                                X             Y             Z
Electronic contribution:      0.00000       0.00000      -0.00000
Nuclear contribution   :      0.00000       0.00000       0.00000
                        -----------------------------------------
Total Dipole Moment    :      0.00000       0.00000      -0.00000
                        -----------------------------------------
Magnitude (a.u.)       :      0.00000
Magnitude (Debye)      :      0.00000

VIBRATIONAL FREQUENCIES
-----------------------

Scaling factor for frequencies =  1.000000000 (already applied!)

   0:         0.00 cm**-1
   1:         0.00 cm**-1
   2:         0.00 cm**-1
   3:         0.00 cm**-1
   4:         0.00 cm**-1
   5:       181.61 cm**-1

IR SPECTRUM
-----------

 Mode    freq (cm**-1)   T**2         TX         TY         TZ
-------------------------------------------------------------------
   5:       181.61    0.000000  ( -0.000000   0.000002   0.000032)

--------------------------
THERMOCHEMISTRY AT 298.15K
--------------------------

Temperature         ... 298.15 K
Pressure            ... 1.00 atm
Total Mass          ... 393.93 AMU
The molecule is recognized as being linear

Throughout the following assumptions are being made:
  (1) The electronic state is orbitally nondegenerate
  (2) There are no thermally accessible electronically excited states
  (3) Hindered rotations indicated by low frequency modes are not
      treated as such but are treated as vibrations and this may
      cause some error
  (4) All equations used are the standard statistical mechanics
      equations for an ideal gas
  (5) All vibrations are strictly harmonic

freq.     181.61  E(vib)   ...       0.37

------------
INNER ENERGY
------------

The inner energy is: U= E(el) + E(ZPE) + E(vib) + E(rot) + E(trans)
    E(el)   - is the total energy from the electronic structure calculation
              = E(kin-el) + E(nuc-el) + E(el-el) + E(nuc-nuc)
    E(ZPE)  - the the zero temperature vibrational energy from the frequency calculation
    E(vib)  - the the finite temperature correction to E(ZPE) due to population
              of excited vibrational states
    E(rot)  - is the rotational thermal energy
    E(trans)- is the translational thermal energy

Summary of contributions to the inner energy U:
Electronic energy                ...   -271.40771022 Eh
Zero point energy                ...      0.00041374 Eh       0.26 kcal/mol
Thermal vibrational correction   ...      0.00059014 Eh       0.37 kcal/mol
Thermal rotational correction    ...      0.00094418 Eh       0.59 kcal/mol
Thermal translational correction ...      0.00141627 Eh       0.89 kcal/mol
-----------------------------------------------------------------------
Total thermal energy                   -271.40434589 Eh

Summary of corrections to the electronic energy:
(perhaps to be used in another calculation)
Total thermal correction                  0.00295059 Eh       1.85 kcal/mol
Non-thermal (ZPE) correction              0.00041374 Eh       0.26 kcal/mol
-----------------------------------------------------------------------
Total correction                          0.00336433 Eh       2.11 kcal/mol

--------
ENTHALPY
--------

The enthalpy is H = U + kB*T
                kB is Boltzmann's constant
Total free energy                 ...   -271.40434589 Eh
Thermal Enthalpy correction       ...      0.00094421 Eh       0.59 kcal/mol
-----------------------------------------------------------------------
Total Enthalpy                    ...   -271.40340168 Eh

Note: Rotational entropy computed according to Herzberg
Infrared and Raman Spectra, Chapter V,1, Van Nostrand Reinhold, 1945
Point Group:  Dinfh, Symmetry Number:   2
Rotational constants in cm-1:     0.000000     0.027068     0.027068

Vibrational entropy computed according to the QRRHO of S. Grimme
Chem.Eur.J. 2012 18 9955

-------
ENTROPY
-------

The entropy contributions are T*S = T*(S(el)+S(vib)+S(rot)+S(trans))
     S(el)   - electronic entropy
     S(vib)  - vibrational entropy
     S(rot)  - rotational entropy
     S(trans)- translational entropy
The entropies will be listed as mutliplied by the temperature to get
units of energy

Electronic entropy                ...      0.00000000 Eh      0.00 kcal/mol
Vibrational entropy               ...      0.00109644 Eh      0.69 kcal/mol
Rotational entropy                ...      0.00873372 Eh      5.48 kcal/mol
Translational entropy             ...      0.02081297 Eh     13.06 kcal/mol
-----------------------------------------------------------------------
Final entropy term                ...      0.03064313 Eh     19.23 kcal/mol

In case the symmetry of your molecule has not been determined correctly
or in case you have a reason to use a different symmetry number we print
out the resulting rotational entropy values for sn=1,12 :
 --------------------------------------------------------
|  sn= 1 | S(rot)=             -inf Eh      -inf kcal/mol|
|  sn= 2 | S(rot)=             -inf Eh      -inf kcal/mol|
|  sn= 3 | S(rot)=             -inf Eh      -inf kcal/mol|
|  sn= 4 | S(rot)=             -inf Eh      -inf kcal/mol|
|  sn= 5 | S(rot)=             -inf Eh      -inf kcal/mol|
|  sn= 6 | S(rot)=             -inf Eh      -inf kcal/mol|
|  sn= 7 | S(rot)=             -inf Eh      -inf kcal/mol|
|  sn= 8 | S(rot)=             -inf Eh      -inf kcal/mol|
|  sn= 9 | S(rot)=             -inf Eh      -inf kcal/mol|
|  sn=10 | S(rot)=             -inf Eh      -inf kcal/mol|
|  sn=11 | S(rot)=             -inf Eh      -inf kcal/mol|
|  sn=12 | S(rot)=             -inf Eh      -inf kcal/mol|
 --------------------------------------------------------

-------------------
GIBBS FREE ENERGY
-------------------

The Gibbs free energy is G = H - T*S

Total enthalpy                    ...   -271.40340168 Eh
Total entropy correction          ...     -0.03064313 Eh    -19.23 kcal/mol
-----------------------------------------------------------------------
Final Gibbs free energy         ...   -271.43404481 Eh

For completeness - the Gibbs free energy minus the electronic energy
G-E(el)                           ...     -0.02633459 Eh    -16.53 kcal/mol

                             ****ORCA TERMINATED NORMALLY****
TOTAL RUN TIME: 0 days 0 hours 11 minutes 24 seconds 888 msec
