                         Program Version 4.2.0 -  RELEASE  -
|  1> #
|  2> # Au03C1_D3H wB97X-V/Def2-TZVPPD
|  3> #
|  4> ! wb97x-v def2-tzvppd def2/jk grid4 nofinalgrid opt xyzfile numfreq numgrad
|  5>
|  6> *xyz 1 1
|  7> Au       0.000000    1.501400   -0.000000
|  8> Au       1.300251   -0.750700   -0.000000
|  9> Au      -1.300251   -0.750700   -0.000000
| 10> *
| 11>
| 12> %maxcore 5000
| 13>
| 14> %pal
| 15> nprocs = 24
| 16> end
| 17>
| 18>
| 19>                          ****END OF INPUT****
 Total Charge           Charge          ....    1
 Multiplicity           Mult            ....    1
 Number of Electrons    NEL             ....   56
FINAL SINGLE POINT ENERGY      -406.875112218869
FINAL SINGLE POINT ENERGY      -406.874474539851
FINAL SINGLE POINT ENERGY      -406.875634171610
FINAL SINGLE POINT ENERGY      -406.875648557783
                    ***********************HURRAY********************

CARTESIAN COORDINATES (ANGSTROEM)
---------------------------------
  Au     0.000000    1.521441    0.000000
  Au     1.318328   -0.760721    0.000000
  Au    -1.318328   -0.760721    0.000000

 Multiplicity           Mult            ....    1
 Number of Electrons    NEL             ....   56
 Basis Dimension        Dim             ....  177

ORBITAL ENERGIES
----------------

  NO   OCC          E(Eh)            E(eV)
   0   2.0000      -4.454666      -121.2176
   1   2.0000      -4.454262      -121.2066
   2   2.0000      -4.454252      -121.2064
   3   2.0000      -2.646275       -72.0088
   4   2.0000      -2.640243       -71.8447
   5   2.0000      -2.640221       -71.8441
   6   2.0000      -2.634924       -71.6999
   7   2.0000      -2.634908       -71.6995
   8   2.0000      -2.633880       -71.6715
   9   2.0000      -2.632300       -71.6285
  10   2.0000      -2.631521       -71.6073
  11   2.0000      -2.631519       -71.6073
  12   2.0000      -0.696564       -18.9545
  13   2.0000      -0.663183       -18.0461
  14   2.0000      -0.663083       -18.0434
  15   2.0000      -0.655278       -17.8310
  16   2.0000      -0.631062       -17.1721
  17   2.0000      -0.624410       -16.9911
  18   2.0000      -0.624353       -16.9895
  19   2.0000      -0.592844       -16.1321
  20   2.0000      -0.592790       -16.1306
  21   2.0000      -0.586225       -15.9520
  22   2.0000      -0.586185       -15.9509
  23   2.0000      -0.586150       -15.9499
  24   2.0000      -0.583659       -15.8822
  25   2.0000      -0.583624       -15.8812
  26   2.0000      -0.556036       -15.1305
  27   2.0000      -0.551309       -15.0019
  28   0.0000      -0.232691        -6.3318
  29   0.0000      -0.232633        -6.3303
  30   0.0000      -0.139858        -3.8057
  31   0.0000      -0.107776        -2.9327
  32   0.0000      -0.092364        -2.5133

MULLIKEN ATOMIC CHARGES
-----------------------
   0 Au:    0.333174
   1 Au:    0.333414
   2 Au:    0.333412
Sum of atomic charges:    1.0000000

LOEWDIN ATOMIC CHARGES
----------------------
   0 Au:    0.333253
   1 Au:    0.333373
   2 Au:    0.333373

  Mayer bond orders larger than 0.100000
B(  0-Au,  1-Au) :   0.6086 B(  0-Au,  2-Au) :   0.6086 B(  1-Au,  2-Au) :   0.6079

FINAL SINGLE POINT ENERGY      -406.875648851598

DIPOLE MOMENT
-------------
                                X             Y             Z
Electronic contribution:      0.00000      -0.00045      -0.00000
Nuclear contribution   :     -0.00000       0.00000       0.00000
                        -----------------------------------------
Total Dipole Moment    :      0.00000      -0.00045      -0.00000
                        -----------------------------------------
Magnitude (a.u.)       :      0.00045
Magnitude (Debye)      :      0.00114

VIBRATIONAL FREQUENCIES
-----------------------

Scaling factor for frequencies =  1.000000000 (already applied!)

   0:         0.00 cm**-1
   1:         0.00 cm**-1
   2:         0.00 cm**-1
   3:         0.00 cm**-1
   4:         0.00 cm**-1
   5:         0.00 cm**-1
   6:       112.84 cm**-1
   7:       113.59 cm**-1
   8:       174.38 cm**-1

IR SPECTRUM
-----------

 Mode    freq (cm**-1)   T**2         TX         TY         TZ
-------------------------------------------------------------------
   6:       112.84    0.484400  (  0.000283   0.695988  -0.000004)
   7:       113.59    0.475400  ( -0.689493   0.000286   0.000002)
   8:       174.38    0.000010  ( -0.000011   0.003209  -0.000001)

--------------------------
THERMOCHEMISTRY AT 298.15K
--------------------------

Temperature         ... 298.15 K
Pressure            ... 1.00 atm
Total Mass          ... 590.90 AMU

Throughout the following assumptions are being made:
  (1) The electronic state is orbitally nondegenerate
  (2) There are no thermally accessible electronically excited states
  (3) Hindered rotations indicated by low frequency modes are not
      treated as such but are treated as vibrations and this may
      cause some error
  (4) All equations used are the standard statistical mechanics
      equations for an ideal gas
  (5) All vibrations are strictly harmonic

freq.     112.84  E(vib)   ...       0.45
freq.     113.59  E(vib)   ...       0.44
freq.     174.38  E(vib)   ...       0.38

------------
INNER ENERGY
------------

The inner energy is: U= E(el) + E(ZPE) + E(vib) + E(rot) + E(trans)
    E(el)   - is the total energy from the electronic structure calculation
              = E(kin-el) + E(nuc-el) + E(el-el) + E(nuc-nuc)
    E(ZPE)  - the the zero temperature vibrational energy from the frequency calculation
    E(vib)  - the the finite temperature correction to E(ZPE) due to population
              of excited vibrational states
    E(rot)  - is the rotational thermal energy
    E(trans)- is the translational thermal energy

Summary of contributions to the inner energy U:
Electronic energy                ...   -406.87564886 Eh
Zero point energy                ...      0.00091311 Eh       0.57 kcal/mol
Thermal vibrational correction   ...      0.00202133 Eh       1.27 kcal/mol
Thermal rotational correction    ...      0.00141627 Eh       0.89 kcal/mol
Thermal translational correction ...      0.00141627 Eh       0.89 kcal/mol
-----------------------------------------------------------------------
Total thermal energy                   -406.86988188 Eh

Summary of corrections to the electronic energy:
(perhaps to be used in another calculation)
Total thermal correction                  0.00485387 Eh       3.05 kcal/mol
Non-thermal (ZPE) correction              0.00091311 Eh       0.57 kcal/mol
-----------------------------------------------------------------------
Total correction                          0.00576698 Eh       3.62 kcal/mol

--------
ENTHALPY
--------

The enthalpy is H = U + kB*T
                kB is Boltzmann's constant
Total free energy                 ...   -406.86988188 Eh
Thermal Enthalpy correction       ...      0.00094421 Eh       0.59 kcal/mol
-----------------------------------------------------------------------
Total Enthalpy                    ...   -406.86893767 Eh

Note: Rotational entropy computed according to Herzberg
Infrared and Raman Spectra, Chapter V,1, Van Nostrand Reinhold, 1945
Point Group:  C2v, Symmetry Number:   2
Rotational constants in cm-1:     0.024649     0.024622     0.012318

Vibrational entropy computed according to the QRRHO of S. Grimme
Chem.Eur.J. 2012 18 9955

-------
ENTROPY
-------

The entropy contributions are T*S = T*(S(el)+S(vib)+S(rot)+S(trans))
     S(el)   - electronic entropy
     S(vib)  - vibrational entropy
     S(rot)  - rotational entropy
     S(trans)- translational entropy
The entropies will be listed as mutliplied by the temperature to get
units of energy

Electronic entropy                ...      0.00000000 Eh      0.00 kcal/mol
Vibrational entropy               ...      0.00401082 Eh      2.52 kcal/mol
Rotational entropy                ...      0.01442882 Eh      9.05 kcal/mol
Translational entropy             ...      0.02138721 Eh     13.42 kcal/mol
-----------------------------------------------------------------------
Final entropy term                ...      0.03982686 Eh     24.99 kcal/mol

In case the symmetry of your molecule has not been determined correctly
or in case you have a reason to use a different symmetry number we print
out the resulting rotational entropy values for sn=1,12 :
 --------------------------------------------------------
|  sn= 1 | S(rot)=       0.01508328 Eh      9.46 kcal/mol|
|  sn= 2 | S(rot)=       0.01442882 Eh      9.05 kcal/mol|
|  sn= 3 | S(rot)=       0.01404599 Eh      8.81 kcal/mol|
|  sn= 4 | S(rot)=       0.01377437 Eh      8.64 kcal/mol|
|  sn= 5 | S(rot)=       0.01356368 Eh      8.51 kcal/mol|
|  sn= 6 | S(rot)=       0.01339154 Eh      8.40 kcal/mol|
|  sn= 7 | S(rot)=       0.01324599 Eh      8.31 kcal/mol|
|  sn= 8 | S(rot)=       0.01311991 Eh      8.23 kcal/mol|
|  sn= 9 | S(rot)=       0.01300870 Eh      8.16 kcal/mol|
|  sn=10 | S(rot)=       0.01290922 Eh      8.10 kcal/mol|
|  sn=11 | S(rot)=       0.01281923 Eh      8.04 kcal/mol|
|  sn=12 | S(rot)=       0.01273708 Eh      7.99 kcal/mol|
 --------------------------------------------------------

-------------------
GIBBS FREE ENERGY
-------------------

The Gibbs free energy is G = H - T*S

Total enthalpy                    ...   -406.86893767 Eh
Total entropy correction          ...     -0.03982686 Eh    -24.99 kcal/mol
-----------------------------------------------------------------------
Final Gibbs free energy         ...   -406.90876453 Eh

For completeness - the Gibbs free energy minus the electronic energy
G-E(el)                           ...     -0.03311567 Eh    -20.78 kcal/mol

                             ****ORCA TERMINATED NORMALLY****
TOTAL RUN TIME: 0 days 0 hours 56 minutes 51 seconds 148 msec
