                         Program Version 4.2.0 -  RELEASE  -
|  1> #
|  2> # Au03N0_D3H wB97X-V/Def2-TZVPPD
|  3> #
|  4> ! wb97x-v def2-tzvppd def2/jk grid4 nofinalgrid opt xyzfile numfreq numgrad
|  5>
|  6> *xyz 0 2
|  7> Au       0.000000    1.515176   -0.000000
|  8> Au       1.312181   -0.757588    0.000000
|  9> Au      -1.312181   -0.757588   -0.000000
| 10> *
| 11>
| 12> %maxcore 5000
| 13>
| 14> %pal
| 15> nprocs = 24
| 16> end
| 17>
| 18>
| 19>                          ****END OF INPUT****
 Total Charge           Charge          ....    0
 Multiplicity           Mult            ....    2
 Number of Electrons    NEL             ....   57
FINAL SINGLE POINT ENERGY      -407.108103929580
FINAL SINGLE POINT ENERGY      -407.111088759906
FINAL SINGLE POINT ENERGY      -407.109822640784
FINAL SINGLE POINT ENERGY      -407.111532276945
FINAL SINGLE POINT ENERGY      -407.111560886788
FINAL SINGLE POINT ENERGY      -407.111570114959
                    ***********************HURRAY********************

CARTESIAN COORDINATES (ANGSTROEM)
---------------------------------
  Au    -0.000000    1.450657    0.000000
  Au     1.435715   -0.725330    0.000000
  Au    -1.435714   -0.725328    0.000000

 Multiplicity           Mult            ....    2
 Number of Electrons    NEL             ....   57
 Basis Dimension        Dim             ....  177

ORBITAL ENERGIES
----------------
                 SPIN UP ORBITALS
  NO   OCC          E(Eh)            E(eV)
   0   1.0000      -4.268487      -116.1514
   1   1.0000      -4.247231      -115.5730
   2   1.0000      -4.247168      -115.5713
   3   1.0000      -2.455398       -66.8148
   4   1.0000      -2.450003       -66.6680
   5   1.0000      -2.446584       -66.5749
   6   1.0000      -2.432216       -66.1840
   7   1.0000      -2.431523       -66.1651
   8   1.0000      -2.427487       -66.0553
   9   1.0000      -2.426170       -66.0194
  10   1.0000      -2.424394       -65.9711
  11   1.0000      -2.424320       -65.9691
  12   1.0000      -0.494713       -13.4618
  13   1.0000      -0.476037       -12.9536
  14   1.0000      -0.455947       -12.4069
  15   1.0000      -0.450947       -12.2709
  16   1.0000      -0.436222       -11.8702
  17   1.0000      -0.428850       -11.6696
  18   1.0000      -0.411839       -11.2067
  19   1.0000      -0.395497       -10.7620
  20   1.0000      -0.394199       -10.7267
  21   1.0000      -0.390753       -10.6329
  22   1.0000      -0.386633       -10.5208
  23   1.0000      -0.386491       -10.5169
  24   1.0000      -0.386423       -10.5151
  25   1.0000      -0.384585       -10.4651
  26   1.0000      -0.371055       -10.0969
  27   1.0000      -0.358664        -9.7597
  28   1.0000      -0.243664        -6.6304
  29   0.0000      -0.066919        -1.8209
  30   0.0000       0.018601         0.5062
  31   0.0000       0.031724         0.8632
  32   0.0000       0.051189         1.3929
  33   0.0000       0.060828         1.6552

                 SPIN DOWN ORBITALS
  NO   OCC          E(Eh)            E(eV)
   0   1.0000      -4.267747      -116.1313
   1   1.0000      -4.245374      -115.5225
   2   1.0000      -4.245321      -115.5211
   3   1.0000      -2.454064       -66.7785
   4   1.0000      -2.448695       -66.6324
   5   1.0000      -2.446500       -66.5726
   6   1.0000      -2.430218       -66.1296
   7   1.0000      -2.429597       -66.1127
   8   1.0000      -2.425862       -66.0111
   9   1.0000      -2.423830       -65.9558
  10   1.0000      -2.422928       -65.9312
  11   1.0000      -2.422793       -65.9275
  12   1.0000      -0.488571       -13.2947
  13   1.0000      -0.472069       -12.8457
  14   1.0000      -0.455038       -12.3822
  15   1.0000      -0.449415       -12.2292
  16   1.0000      -0.435159       -11.8413
  17   1.0000      -0.421732       -11.4759
  18   1.0000      -0.408659       -11.1202
  19   1.0000      -0.393789       -10.7156
  20   1.0000      -0.389923       -10.6104
  21   1.0000      -0.386870       -10.5273
  22   1.0000      -0.384602       -10.4655
  23   1.0000      -0.384585       -10.4651
  24   1.0000      -0.380778       -10.3615
  25   1.0000      -0.379570       -10.3286
  26   1.0000      -0.358538        -9.7563
  27   1.0000      -0.351044        -9.5524
  28   0.0000      -0.056685        -1.5425
  29   0.0000      -0.049685        -1.3520
  30   0.0000       0.022476         0.6116
  31   0.0000       0.049792         1.3549
  32   0.0000       0.063758         1.7349

MULLIKEN ATOMIC CHARGES AND SPIN POPULATIONS
--------------------------------------------
   0 Au:    0.114092    0.012465
   1 Au:   -0.057052    0.493782
   2 Au:   -0.057040    0.493753
Sum of atomic charges         :   -0.0000000

LOEWDIN ATOMIC CHARGES AND SPIN POPULATIONS
-------------------------------------------
   0 Au:    0.046369    0.179985
   1 Au:   -0.023190    0.410017
   2 Au:   -0.023179    0.409997

  Mayer bond orders larger than 0.100000
B(  0-Au,  1-Au) :   0.6818 B(  0-Au,  2-Au) :   0.6818 B(  1-Au,  2-Au) :   0.4141

FINAL SINGLE POINT ENERGY      -407.111570204835

DIPOLE MOMENT
-------------
                                X             Y             Z
Electronic contribution:     -0.00004       0.38048       0.00000
Nuclear contribution   :     -0.00000       0.00000       0.00000
                        -----------------------------------------
Total Dipole Moment    :     -0.00004       0.38048       0.00000
                        -----------------------------------------
Magnitude (a.u.)       :      0.38048
Magnitude (Debye)      :      0.96709

VIBRATIONAL FREQUENCIES
-----------------------

Scaling factor for frequencies =  1.000000000 (already applied!)

   0:         0.00 cm**-1
   1:         0.00 cm**-1
   2:         0.00 cm**-1
   3:         0.00 cm**-1
   4:         0.00 cm**-1
   5:         0.00 cm**-1
   6:        54.81 cm**-1
   7:        62.57 cm**-1
   8:       164.83 cm**-1

IR SPECTRUM
-----------

 Mode    freq (cm**-1)   T**2         TX         TY         TZ
-------------------------------------------------------------------
   6:        54.81   39.740517  (  6.304008  -0.000202  -0.000004)
   7:        62.57    0.731618  (  0.001614   0.855345  -0.000008)
   8:       164.83    0.415728  (  0.000314   0.644770  -0.000002)

--------------------------
THERMOCHEMISTRY AT 298.15K
--------------------------

Temperature         ... 298.15 K
Pressure            ... 1.00 atm
Total Mass          ... 590.90 AMU

Throughout the following assumptions are being made:
  (1) The electronic state is orbitally nondegenerate
      but the spin degeneracy is treated
  (2) There are no thermally accessible electronically excited states
  (3) Hindered rotations indicated by low frequency modes are not
      treated as such but are treated as vibrations and this may
      cause some error
  (4) All equations used are the standard statistical mechanics
      equations for an ideal gas
  (5) All vibrations are strictly harmonic

freq.      54.81  E(vib)   ...       0.52
freq.      62.57  E(vib)   ...       0.51
freq.     164.83  E(vib)   ...       0.39

------------
INNER ENERGY
------------

The inner energy is: U= E(el) + E(ZPE) + E(vib) + E(rot) + E(trans)
    E(el)   - is the total energy from the electronic structure calculation
              = E(kin-el) + E(nuc-el) + E(el-el) + E(nuc-nuc)
    E(ZPE)  - the the zero temperature vibrational energy from the frequency calculation
    E(vib)  - the the finite temperature correction to E(ZPE) due to population
              of excited vibrational states
    E(rot)  - is the rotational thermal energy
    E(trans)- is the translational thermal energy

Summary of contributions to the inner energy U:
Electronic energy                ...   -407.11157021 Eh
Zero point energy                ...      0.00064294 Eh       0.40 kcal/mol
Thermal vibrational correction   ...      0.00225162 Eh       1.41 kcal/mol
Thermal rotational correction    ...      0.00141627 Eh       0.89 kcal/mol
Thermal translational correction ...      0.00141627 Eh       0.89 kcal/mol
-----------------------------------------------------------------------
Total thermal energy                   -407.10584311 Eh

Summary of corrections to the electronic energy:
(perhaps to be used in another calculation)
Total thermal correction                  0.00508416 Eh       3.19 kcal/mol
Non-thermal (ZPE) correction              0.00064294 Eh       0.40 kcal/mol
-----------------------------------------------------------------------
Total correction                          0.00572710 Eh       3.59 kcal/mol

--------
ENTHALPY
--------

The enthalpy is H = U + kB*T
                kB is Boltzmann's constant
Total free energy                 ...   -407.10584311 Eh
Thermal Enthalpy correction       ...      0.00094421 Eh       0.59 kcal/mol
-----------------------------------------------------------------------
Total Enthalpy                    ...   -407.10489890 Eh

Note: Rotational entropy computed according to Herzberg
Infrared and Raman Spectra, Chapter V,1, Van Nostrand Reinhold, 1945
Point Group:  Cs, Symmetry Number:   1
Rotational constants in cm-1:     0.027113     0.020761     0.011758

Vibrational entropy computed according to the QRRHO of S. Grimme
Chem.Eur.J. 2012 18 9955

-------
ENTROPY
-------

The entropy contributions are T*S = T*(S(el)+S(vib)+S(rot)+S(trans))
     S(el)   - electronic entropy
     S(vib)  - vibrational entropy
     S(rot)  - rotational entropy
     S(trans)- translational entropy
The entropies will be listed as mutliplied by the temperature to get
units of energy

Electronic entropy                ...      0.00065446 Eh      0.41 kcal/mol
Vibrational entropy               ...      0.00450860 Eh      2.83 kcal/mol
Rotational entropy                ...      0.01514081 Eh      9.50 kcal/mol
Translational entropy             ...      0.02138721 Eh     13.42 kcal/mol
-----------------------------------------------------------------------
Final entropy term                ...      0.04169107 Eh     26.16 kcal/mol

In case the symmetry of your molecule has not been determined correctly
or in case you have a reason to use a different symmetry number we print
out the resulting rotational entropy values for sn=1,12 :
 --------------------------------------------------------
|  sn= 1 | S(rot)=       0.01514081 Eh      9.50 kcal/mol|
|  sn= 2 | S(rot)=       0.01448635 Eh      9.09 kcal/mol|
|  sn= 3 | S(rot)=       0.01410352 Eh      8.85 kcal/mol|
|  sn= 4 | S(rot)=       0.01383190 Eh      8.68 kcal/mol|
|  sn= 5 | S(rot)=       0.01362121 Eh      8.55 kcal/mol|
|  sn= 6 | S(rot)=       0.01344906 Eh      8.44 kcal/mol|
|  sn= 7 | S(rot)=       0.01330352 Eh      8.35 kcal/mol|
|  sn= 8 | S(rot)=       0.01317744 Eh      8.27 kcal/mol|
|  sn= 9 | S(rot)=       0.01306623 Eh      8.20 kcal/mol|
|  sn=10 | S(rot)=       0.01296675 Eh      8.14 kcal/mol|
|  sn=11 | S(rot)=       0.01287676 Eh      8.08 kcal/mol|
|  sn=12 | S(rot)=       0.01279461 Eh      8.03 kcal/mol|
 --------------------------------------------------------

-------------------
GIBBS FREE ENERGY
-------------------

The Gibbs free energy is G = H - T*S

Total enthalpy                    ...   -407.10489890 Eh
Total entropy correction          ...     -0.04169107 Eh    -26.16 kcal/mol
-----------------------------------------------------------------------
Final Gibbs free energy         ...   -407.14658997 Eh

For completeness - the Gibbs free energy minus the electronic energy
G-E(el)                           ...     -0.03501977 Eh    -21.98 kcal/mol

                             ****ORCA TERMINATED NORMALLY****
TOTAL RUN TIME: 0 days 1 hours 33 minutes 49 seconds 238 msec
