                         Program Version 4.2.0 -  RELEASE  -
|  1> #
|  2> # Cu01N0_F wB97X-V/Def2-TZVPPD
|  3> #
|  4> ! wb97x-v def2-tzvppd def2/jk grid4 nofinalgrid opt xyzfile numfreq numgrad
|  5>
|  6> *xyz 0 1
|  7> Cu       0.000000    0.000000    0.412716
|  8> F        0.000000    0.000000   -1.329863
|  9> *
| 10>
| 11> %maxcore 5000
| 12>
| 13> %pal
| 14> nprocs = 24
| 15> end
| 16>
| 17>
| 18>                          ****END OF INPUT****
 Total Charge           Charge          ....    0
 Multiplicity           Mult            ....    1
 Number of Electrons    NEL             ....   38
FINAL SINGLE POINT ENERGY     -1740.214062059615
FINAL SINGLE POINT ENERGY     -1740.214135747711
FINAL SINGLE POINT ENERGY     -1740.214328036193
FINAL SINGLE POINT ENERGY     -1740.214329128489
                    ***********************HURRAY********************

CARTESIAN COORDINATES (ANGSTROEM)
---------------------------------
  Cu     0.000000    0.000000    0.426247
  F      0.000000    0.000000   -1.343394

 Multiplicity           Mult            ....    1
 Number of Electrons    NEL             ....   38
 Basis Dimension        Dim             ....  107

ORBITAL ENERGIES
----------------

  NO   OCC          E(Eh)            E(eV)
   0   2.0000    -322.890997     -8786.3107
   1   2.0000     -38.870745     -1057.7267
   2   2.0000     -34.068076      -927.0395
   3   2.0000     -34.068076      -927.0395
   4   2.0000     -34.066890      -927.0072
   5   2.0000     -24.647601      -670.6953
   6   2.0000      -4.425790      -120.4319
   7   2.0000      -2.922376       -79.5219
   8   2.0000      -2.919702       -79.4491
   9   2.0000      -2.919702       -79.4491
  10   2.0000      -1.174106       -31.9490
  11   2.0000      -0.491183       -13.3658
  12   2.0000      -0.459249       -12.4968
  13   2.0000      -0.459249       -12.4968
  14   2.0000      -0.412861       -11.2345
  15   2.0000      -0.412861       -11.2345
  16   2.0000      -0.383429       -10.4336
  17   2.0000      -0.383429       -10.4336
  18   2.0000      -0.371800       -10.1172
  19   0.0000      -0.041307        -1.1240
  20   0.0000       0.046857         1.2750
  21   0.0000       0.046857         1.2750
  22   0.0000       0.078281         2.1301
  23   0.0000       0.120199         3.2708

MULLIKEN ATOMIC CHARGES
-----------------------
   0 Cu:    0.685196
   1 F :   -0.685196
Sum of atomic charges:   -0.0000000

LOEWDIN ATOMIC CHARGES
----------------------
   0 Cu:    0.562126
   1 F :   -0.562126

  Mayer bond orders larger than 0.100000
B(  0-Cu,  1-F ) :   0.6402

FINAL SINGLE POINT ENERGY     -1740.214329134071

DIPOLE MOMENT
-------------
                                X             Y             Z
Electronic contribution:     -0.00000       0.00000       3.01122
Nuclear contribution   :      0.00000       0.00000      -0.85106
                        -----------------------------------------
Total Dipole Moment    :     -0.00000       0.00000       2.16016
                        -----------------------------------------
Magnitude (a.u.)       :      2.16016
Magnitude (Debye)      :      5.49068

VIBRATIONAL FREQUENCIES
-----------------------

Scaling factor for frequencies =  1.000000000 (already applied!)

   0:         0.00 cm**-1
   1:         0.00 cm**-1
   2:         0.00 cm**-1
   3:         0.00 cm**-1
   4:         0.00 cm**-1
   5:       591.70 cm**-1

IR SPECTRUM
-----------

 Mode    freq (cm**-1)   T**2         TX         TY         TZ
-------------------------------------------------------------------
   5:       591.70   61.406977  (  0.000001   0.000003   7.836260)

--------------------------
THERMOCHEMISTRY AT 298.15K
--------------------------

Temperature         ... 298.15 K
Pressure            ... 1.00 atm
Total Mass          ... 82.55 AMU
The molecule is recognized as being linear

Throughout the following assumptions are being made:
  (1) The electronic state is orbitally nondegenerate
  (2) There are no thermally accessible electronically excited states
  (3) Hindered rotations indicated by low frequency modes are not
      treated as such but are treated as vibrations and this may
      cause some error
  (4) All equations used are the standard statistical mechanics
      equations for an ideal gas
  (5) All vibrations are strictly harmonic

freq.     591.70  E(vib)   ...       0.10

------------
INNER ENERGY
------------

The inner energy is: U= E(el) + E(ZPE) + E(vib) + E(rot) + E(trans)
    E(el)   - is the total energy from the electronic structure calculation
              = E(kin-el) + E(nuc-el) + E(el-el) + E(nuc-nuc)
    E(ZPE)  - the the zero temperature vibrational energy from the frequency calculation
    E(vib)  - the the finite temperature correction to E(ZPE) due to population
              of excited vibrational states
    E(rot)  - is the rotational thermal energy
    E(trans)- is the translational thermal energy

Summary of contributions to the inner energy U:
Electronic energy                ...  -1740.21432913 Eh
Zero point energy                ...      0.00134799 Eh       0.85 kcal/mol
Thermal vibrational correction   ...      0.00016460 Eh       0.10 kcal/mol
Thermal rotational correction    ...      0.00094418 Eh       0.59 kcal/mol
Thermal translational correction ...      0.00141627 Eh       0.89 kcal/mol
-----------------------------------------------------------------------
Total thermal energy                  -1740.21045610 Eh

Summary of corrections to the electronic energy:
(perhaps to be used in another calculation)
Total thermal correction                  0.00252505 Eh       1.58 kcal/mol
Non-thermal (ZPE) correction              0.00134799 Eh       0.85 kcal/mol
-----------------------------------------------------------------------
Total correction                          0.00387304 Eh       2.43 kcal/mol

--------
ENTHALPY
--------

The enthalpy is H = U + kB*T
                kB is Boltzmann's constant
Total free energy                 ...  -1740.21045610 Eh
Thermal Enthalpy correction       ...      0.00094421 Eh       0.59 kcal/mol
-----------------------------------------------------------------------
Total Enthalpy                    ...  -1740.20951189 Eh

Note: Rotational entropy computed according to Herzberg
Infrared and Raman Spectra, Chapter V,1, Van Nostrand Reinhold, 1945
Point Group:  Cinfv, Symmetry Number:   1
Rotational constants in cm-1:     0.000000     0.368053     0.368053

Vibrational entropy computed according to the QRRHO of S. Grimme
Chem.Eur.J. 2012 18 9955

-------
ENTROPY
-------

The entropy contributions are T*S = T*(S(el)+S(vib)+S(rot)+S(trans))
     S(el)   - electronic entropy
     S(vib)  - vibrational entropy
     S(rot)  - rotational entropy
     S(trans)- translational entropy
The entropies will be listed as mutliplied by the temperature to get
units of energy

Electronic entropy                ...      0.00000000 Eh      0.00 kcal/mol
Vibrational entropy               ...      0.00022079 Eh      0.14 kcal/mol
Rotational entropy                ...      0.00692400 Eh      4.34 kcal/mol
Translational entropy             ...      0.01859962 Eh     11.67 kcal/mol
-----------------------------------------------------------------------
Final entropy term                ...      0.02574440 Eh     16.15 kcal/mol

In case the symmetry of your molecule has not been determined correctly
or in case you have a reason to use a different symmetry number we print
out the resulting rotational entropy values for sn=1,12 :
 --------------------------------------------------------
|  sn= 1 | S(rot)=             -inf Eh      -inf kcal/mol|
|  sn= 2 | S(rot)=             -inf Eh      -inf kcal/mol|
|  sn= 3 | S(rot)=             -inf Eh      -inf kcal/mol|
|  sn= 4 | S(rot)=             -inf Eh      -inf kcal/mol|
|  sn= 5 | S(rot)=             -inf Eh      -inf kcal/mol|
|  sn= 6 | S(rot)=             -inf Eh      -inf kcal/mol|
|  sn= 7 | S(rot)=             -inf Eh      -inf kcal/mol|
|  sn= 8 | S(rot)=             -inf Eh      -inf kcal/mol|
|  sn= 9 | S(rot)=             -inf Eh      -inf kcal/mol|
|  sn=10 | S(rot)=             -inf Eh      -inf kcal/mol|
|  sn=11 | S(rot)=             -inf Eh      -inf kcal/mol|
|  sn=12 | S(rot)=             -inf Eh      -inf kcal/mol|
 --------------------------------------------------------

-------------------
GIBBS FREE ENERGY
-------------------

The Gibbs free energy is G = H - T*S

Total enthalpy                    ...  -1740.20951189 Eh
Total entropy correction          ...     -0.02574440 Eh    -16.15 kcal/mol
-----------------------------------------------------------------------
Final Gibbs free energy         ...  -1740.23525629 Eh

For completeness - the Gibbs free energy minus the electronic energy
G-E(el)                           ...     -0.02092716 Eh    -13.13 kcal/mol

                             ****ORCA TERMINATED NORMALLY****
TOTAL RUN TIME: 0 days 0 hours 8 minutes 43 seconds 562 msec
