                         Program Version 4.2.0 -  RELEASE  -
|  1> #
|  2> # Cu01N0_H wB97X-V/Def2-TZVPPD
|  3> #
|  4> ! wb97x-v def2-tzvppd def2/jk grid4 nofinalgrid opt xyzfile numfreq numgrad
|  5>
|  6> *xyz 0 1
|  7> Cu       0.000000    0.000000    0.048513
|  8> H        0.000000    0.000000   -1.406870
|  9> *
| 10>
| 11> %maxcore 5000
| 12>
| 13> %pal
| 14> nprocs = 24
| 15> end
| 16>
| 17>
| 18>                          ****END OF INPUT****
 Total Charge           Charge          ....    0
 Multiplicity           Mult            ....    1
 Number of Electrons    NEL             ....   30
FINAL SINGLE POINT ENERGY     -1640.922635094572
FINAL SINGLE POINT ENERGY     -1640.922702242573
FINAL SINGLE POINT ENERGY     -1640.922868952992
FINAL SINGLE POINT ENERGY     -1640.922869649258
                    ***********************HURRAY********************

CARTESIAN COORDINATES (ANGSTROEM)
---------------------------------
  Cu     0.000000    0.000000    0.063739
  H      0.000000    0.000000   -1.422096

 Multiplicity           Mult            ....    1
 Number of Electrons    NEL             ....   30
 Basis Dimension        Dim             ....   84

ORBITAL ENERGIES
----------------

  NO   OCC          E(Eh)            E(eV)
   0   2.0000    -322.869883     -8785.7362
   1   2.0000     -38.852601     -1057.2330
   2   2.0000     -34.050414      -926.5589
   3   2.0000     -34.048675      -926.5115
   4   2.0000     -34.048675      -926.5115
   5   2.0000      -4.402039      -119.7856
   6   2.0000      -2.900658       -78.9309
   7   2.0000      -2.893957       -78.7486
   8   2.0000      -2.893957       -78.7486
   9   2.0000      -0.435498       -11.8505
  10   2.0000      -0.391664       -10.6577
  11   2.0000      -0.391664       -10.6577
  12   2.0000      -0.385734       -10.4964
  13   2.0000      -0.385734       -10.4963
  14   2.0000      -0.332640        -9.0516
  15   0.0000      -0.009863        -0.2684
  16   0.0000       0.045471         1.2373
  17   0.0000       0.045471         1.2373
  18   0.0000       0.111265         3.0277
  19   0.0000       0.122735         3.3398

MULLIKEN ATOMIC CHARGES
-----------------------
   0 Cu:   -0.201625
   1 H :    0.201625
Sum of atomic charges:   -0.0000000

LOEWDIN ATOMIC CHARGES
----------------------
   0 Cu:    0.253520
   1 H :   -0.253520

  Mayer bond orders larger than 0.100000
B(  0-Cu,  1-H ) :   0.9472

FINAL SINGLE POINT ENERGY     -1640.922869660321

DIPOLE MOMENT
-------------
                                X             Y             Z
Electronic contribution:      0.00000      -0.00000       2.75205
Nuclear contribution   :      0.00000       0.00000      -1.49259
                        -----------------------------------------
Total Dipole Moment    :      0.00000      -0.00000       1.25946
                        -----------------------------------------
Magnitude (a.u.)       :      1.25946
Magnitude (Debye)      :      3.20128

VIBRATIONAL FREQUENCIES
-----------------------

Scaling factor for frequencies =  1.000000000 (already applied!)

   0:         0.00 cm**-1
   1:         0.00 cm**-1
   2:         0.00 cm**-1
   3:         0.00 cm**-1
   4:         0.00 cm**-1
   5:      1899.18 cm**-1

IR SPECTRUM
-----------

 Mode    freq (cm**-1)   T**2         TX         TY         TZ
-------------------------------------------------------------------
   5:      1899.18  106.887239  ( -0.000008   0.000030  10.338628)

--------------------------
THERMOCHEMISTRY AT 298.15K
--------------------------

Temperature         ... 298.15 K
Pressure            ... 1.00 atm
Total Mass          ... 64.56 AMU
The molecule is recognized as being linear

Throughout the following assumptions are being made:
  (1) The electronic state is orbitally nondegenerate
  (2) There are no thermally accessible electronically excited states
  (3) Hindered rotations indicated by low frequency modes are not
      treated as such but are treated as vibrations and this may
      cause some error
  (4) All equations used are the standard statistical mechanics
      equations for an ideal gas
  (5) All vibrations are strictly harmonic

freq.    1899.18  E(vib)   ...       0.00

------------
INNER ENERGY
------------

The inner energy is: U= E(el) + E(ZPE) + E(vib) + E(rot) + E(trans)
    E(el)   - is the total energy from the electronic structure calculation
              = E(kin-el) + E(nuc-el) + E(el-el) + E(nuc-nuc)
    E(ZPE)  - the the zero temperature vibrational energy from the frequency calculation
    E(vib)  - the the finite temperature correction to E(ZPE) due to population
              of excited vibrational states
    E(rot)  - is the rotational thermal energy
    E(trans)- is the translational thermal energy

Summary of contributions to the inner energy U:
Electronic energy                ...  -1640.92286966 Eh
Zero point energy                ...      0.00432666 Eh       2.72 kcal/mol
Thermal vibrational correction   ...      0.00000091 Eh       0.00 kcal/mol
Thermal rotational correction    ...      0.00094418 Eh       0.59 kcal/mol
Thermal translational correction ...      0.00141627 Eh       0.89 kcal/mol
-----------------------------------------------------------------------
Total thermal energy                  -1640.91618164 Eh

Summary of corrections to the electronic energy:
(perhaps to be used in another calculation)
Total thermal correction                  0.00236136 Eh       1.48 kcal/mol
Non-thermal (ZPE) correction              0.00432666 Eh       2.72 kcal/mol
-----------------------------------------------------------------------
Total correction                          0.00668802 Eh       4.20 kcal/mol

--------
ENTHALPY
--------

The enthalpy is H = U + kB*T
                kB is Boltzmann's constant
Total free energy                 ...  -1640.91618164 Eh
Thermal Enthalpy correction       ...      0.00094421 Eh       0.59 kcal/mol
-----------------------------------------------------------------------
Total Enthalpy                    ...  -1640.91523743 Eh

Note: Rotational entropy computed according to Herzberg
Infrared and Raman Spectra, Chapter V,1, Van Nostrand Reinhold, 1945
Point Group:  Cinfv, Symmetry Number:   1
Rotational constants in cm-1:     0.000000     7.695371     7.695371

Vibrational entropy computed according to the QRRHO of S. Grimme
Chem.Eur.J. 2012 18 9955

-------
ENTROPY
-------

The entropy contributions are T*S = T*(S(el)+S(vib)+S(rot)+S(trans))
     S(el)   - electronic entropy
     S(vib)  - vibrational entropy
     S(rot)  - rotational entropy
     S(trans)- translational entropy
The entropies will be listed as mutliplied by the temperature to get
units of energy

Electronic entropy                ...      0.00000000 Eh      0.00 kcal/mol
Vibrational entropy               ...      0.00000100 Eh      0.00 kcal/mol
Rotational entropy                ...      0.00405355 Eh      2.54 kcal/mol
Translational entropy             ...      0.01825147 Eh     11.45 kcal/mol
-----------------------------------------------------------------------
Final entropy term                ...      0.02230603 Eh     14.00 kcal/mol

In case the symmetry of your molecule has not been determined correctly
or in case you have a reason to use a different symmetry number we print
out the resulting rotational entropy values for sn=1,12 :
 --------------------------------------------------------
|  sn= 1 | S(rot)=             -inf Eh      -inf kcal/mol|
|  sn= 2 | S(rot)=             -inf Eh      -inf kcal/mol|
|  sn= 3 | S(rot)=             -inf Eh      -inf kcal/mol|
|  sn= 4 | S(rot)=             -inf Eh      -inf kcal/mol|
|  sn= 5 | S(rot)=             -inf Eh      -inf kcal/mol|
|  sn= 6 | S(rot)=             -inf Eh      -inf kcal/mol|
|  sn= 7 | S(rot)=             -inf Eh      -inf kcal/mol|
|  sn= 8 | S(rot)=             -inf Eh      -inf kcal/mol|
|  sn= 9 | S(rot)=             -inf Eh      -inf kcal/mol|
|  sn=10 | S(rot)=             -inf Eh      -inf kcal/mol|
|  sn=11 | S(rot)=             -inf Eh      -inf kcal/mol|
|  sn=12 | S(rot)=             -inf Eh      -inf kcal/mol|
 --------------------------------------------------------

-------------------
GIBBS FREE ENERGY
-------------------

The Gibbs free energy is G = H - T*S

Total enthalpy                    ...  -1640.91523743 Eh
Total entropy correction          ...     -0.02230603 Eh    -14.00 kcal/mol
-----------------------------------------------------------------------
Final Gibbs free energy         ...  -1640.93754346 Eh

For completeness - the Gibbs free energy minus the electronic energy
G-E(el)                           ...     -0.01467380 Eh     -9.21 kcal/mol

                             ****ORCA TERMINATED NORMALLY****
TOTAL RUN TIME: 0 days 0 hours 7 minutes 30 seconds 428 msec
