                         Program Version 4.2.0 -  RELEASE  -
|  1> #
|  2> # Cu02N0 wB97X-V/Def2-TZVPPD
|  3> #
|  4> ! wb97x-v def2-tzvppd def2/jk grid4 nofinalgrid opt xyzfile numfreq numgrad
|  5>
|  6> *xyz 0 1
|  7> Cu       0.000000    0.000000    1.107490
|  8> Cu       0.000000    0.000000   -1.107490
|  9> *
| 10>
| 11> %maxcore 5000
| 12>
| 13> %pal
| 14> nprocs = 24
| 15> end
| 16>
| 17>
| 18>                          ****END OF INPUT****
 Total Charge           Charge          ....    0
 Multiplicity           Mult            ....    1
 Number of Electrons    NEL             ....   58
FINAL SINGLE POINT ENERGY     -3280.708838761036
FINAL SINGLE POINT ENERGY     -3280.708873696753
FINAL SINGLE POINT ENERGY     -3280.709441069630
FINAL SINGLE POINT ENERGY     -3280.709448054195
FINAL SINGLE POINT ENERGY     -3280.709448128254
                    ***********************HURRAY********************

CARTESIAN COORDINATES (ANGSTROEM)
---------------------------------
  Cu     0.000000    0.000000    1.139472
  Cu     0.000000    0.000000   -1.139472

 Multiplicity           Mult            ....    1
 Number of Electrons    NEL             ....   58
 Basis Dimension        Dim             ....  134

ORBITAL ENERGIES
----------------

  NO   OCC          E(Eh)            E(eV)
   0   2.0000    -322.835882     -8784.8110
   1   2.0000    -322.835874     -8784.8107
   2   2.0000     -38.815962     -1056.2360
   3   2.0000     -38.815915     -1056.2348
   4   2.0000     -34.013203      -925.5463
   5   2.0000     -34.013193      -925.5460
   6   2.0000     -34.012744      -925.5338
   7   2.0000     -34.012744      -925.5338
   8   2.0000     -34.012737      -925.5336
   9   2.0000     -34.012737      -925.5336
  10   2.0000      -4.367237      -118.8386
  11   2.0000      -4.366765      -118.8257
  12   2.0000      -2.865872       -77.9843
  13   2.0000      -2.861459       -77.8643
  14   2.0000      -2.860882       -77.8486
  15   2.0000      -2.860882       -77.8486
  16   2.0000      -2.860545       -77.8394
  17   2.0000      -2.860545       -77.8394
  18   2.0000      -0.386549       -10.5185
  19   2.0000      -0.374797       -10.1987
  20   2.0000      -0.374797       -10.1987
  21   2.0000      -0.358161        -9.7461
  22   2.0000      -0.358155        -9.7459
  23   2.0000      -0.350860        -9.5474
  24   2.0000      -0.350853        -9.5472
  25   2.0000      -0.340382        -9.2623
  26   2.0000      -0.340382        -9.2623
  27   2.0000      -0.336713        -9.1624
  28   2.0000      -0.278134        -7.5684
  29   0.0000      -0.016930        -0.4607
  30   0.0000       0.033781         0.9192
  31   0.0000       0.033781         0.9192
  32   0.0000       0.054918         1.4944
  33   0.0000       0.084489         2.2991

MULLIKEN ATOMIC CHARGES
-----------------------
   0 Cu:   -0.000006
   1 Cu:    0.000006
Sum of atomic charges:   -0.0000000

LOEWDIN ATOMIC CHARGES
----------------------
   0 Cu:   -0.000000
   1 Cu:    0.000000

  Mayer bond orders larger than 0.100000
B(  0-Cu,  1-Cu) :   1.0481

FINAL SINGLE POINT ENERGY     -3280.709448127277

DIPOLE MOMENT
-------------
                                X             Y             Z
Electronic contribution:      0.00000       0.00000      -0.00000
Nuclear contribution   :      0.00000       0.00000       0.00000
                        -----------------------------------------
Total Dipole Moment    :      0.00000       0.00000      -0.00000
                        -----------------------------------------
Magnitude (a.u.)       :      0.00000
Magnitude (Debye)      :      0.00000

VIBRATIONAL FREQUENCIES
-----------------------

Scaling factor for frequencies =  1.000000000 (already applied!)

   0:         0.00 cm**-1
   1:         0.00 cm**-1
   2:         0.00 cm**-1
   3:         0.00 cm**-1
   4:         0.00 cm**-1
   5:       253.73 cm**-1

IR SPECTRUM
-----------

 Mode    freq (cm**-1)   T**2         TX         TY         TZ
-------------------------------------------------------------------
   5:       253.73    0.000000  ( -0.000002   0.000002   0.000044)

--------------------------
THERMOCHEMISTRY AT 298.15K
--------------------------

Temperature         ... 298.15 K
Pressure            ... 1.00 atm
Total Mass          ... 127.10 AMU
The molecule is recognized as being linear

Throughout the following assumptions are being made:
  (1) The electronic state is orbitally nondegenerate
  (2) There are no thermally accessible electronically excited states
  (3) Hindered rotations indicated by low frequency modes are not
      treated as such but are treated as vibrations and this may
      cause some error
  (4) All equations used are the standard statistical mechanics
      equations for an ideal gas
  (5) All vibrations are strictly harmonic

freq.     253.73  E(vib)   ...       0.30

------------
INNER ENERGY
------------

The inner energy is: U= E(el) + E(ZPE) + E(vib) + E(rot) + E(trans)
    E(el)   - is the total energy from the electronic structure calculation
              = E(kin-el) + E(nuc-el) + E(el-el) + E(nuc-nuc)
    E(ZPE)  - the the zero temperature vibrational energy from the frequency calculation
    E(vib)  - the the finite temperature correction to E(ZPE) due to population
              of excited vibrational states
    E(rot)  - is the rotational thermal energy
    E(trans)- is the translational thermal energy

Summary of contributions to the inner energy U:
Electronic energy                ...  -3280.70944813 Eh
Zero point energy                ...      0.00057804 Eh       0.36 kcal/mol
Thermal vibrational correction   ...      0.00048128 Eh       0.30 kcal/mol
Thermal rotational correction    ...      0.00094418 Eh       0.59 kcal/mol
Thermal translational correction ...      0.00141627 Eh       0.89 kcal/mol
-----------------------------------------------------------------------
Total thermal energy                  -3280.70602835 Eh

Summary of corrections to the electronic energy:
(perhaps to be used in another calculation)
Total thermal correction                  0.00284173 Eh       1.78 kcal/mol
Non-thermal (ZPE) correction              0.00057804 Eh       0.36 kcal/mol
-----------------------------------------------------------------------
Total correction                          0.00341977 Eh       2.15 kcal/mol

--------
ENTHALPY
--------

The enthalpy is H = U + kB*T
                kB is Boltzmann's constant
Total free energy                 ...  -3280.70602835 Eh
Thermal Enthalpy correction       ...      0.00094421 Eh       0.59 kcal/mol
-----------------------------------------------------------------------
Total Enthalpy                    ...  -3280.70508415 Eh

Note: Rotational entropy computed according to Herzberg
Infrared and Raman Spectra, Chapter V,1, Van Nostrand Reinhold, 1945
Point Group:  Dinfh, Symmetry Number:   2
Rotational constants in cm-1:     0.000000     0.102151     0.102151

Vibrational entropy computed according to the QRRHO of S. Grimme
Chem.Eur.J. 2012 18 9955

-------
ENTROPY
-------

The entropy contributions are T*S = T*(S(el)+S(vib)+S(rot)+S(trans))
     S(el)   - electronic entropy
     S(vib)  - vibrational entropy
     S(rot)  - rotational entropy
     S(trans)- translational entropy
The entropies will be listed as mutliplied by the temperature to get
units of energy

Electronic entropy                ...      0.00000000 Eh      0.00 kcal/mol
Vibrational entropy               ...      0.00081241 Eh      0.51 kcal/mol
Rotational entropy                ...      0.00747977 Eh      4.69 kcal/mol
Translational entropy             ...      0.01921087 Eh     12.05 kcal/mol
-----------------------------------------------------------------------
Final entropy term                ...      0.02750305 Eh     17.26 kcal/mol

In case the symmetry of your molecule has not been determined correctly
or in case you have a reason to use a different symmetry number we print
out the resulting rotational entropy values for sn=1,12 :
 --------------------------------------------------------
|  sn= 1 | S(rot)=             -inf Eh      -inf kcal/mol|
|  sn= 2 | S(rot)=             -inf Eh      -inf kcal/mol|
|  sn= 3 | S(rot)=             -inf Eh      -inf kcal/mol|
|  sn= 4 | S(rot)=             -inf Eh      -inf kcal/mol|
|  sn= 5 | S(rot)=             -inf Eh      -inf kcal/mol|
|  sn= 6 | S(rot)=             -inf Eh      -inf kcal/mol|
|  sn= 7 | S(rot)=             -inf Eh      -inf kcal/mol|
|  sn= 8 | S(rot)=             -inf Eh      -inf kcal/mol|
|  sn= 9 | S(rot)=             -inf Eh      -inf kcal/mol|
|  sn=10 | S(rot)=             -inf Eh      -inf kcal/mol|
|  sn=11 | S(rot)=             -inf Eh      -inf kcal/mol|
|  sn=12 | S(rot)=             -inf Eh      -inf kcal/mol|
 --------------------------------------------------------

-------------------
GIBBS FREE ENERGY
-------------------

The Gibbs free energy is G = H - T*S

Total enthalpy                    ...  -3280.70508415 Eh
Total entropy correction          ...     -0.02750305 Eh    -17.26 kcal/mol
-----------------------------------------------------------------------
Final Gibbs free energy         ...  -3280.73258719 Eh

For completeness - the Gibbs free energy minus the electronic energy
G-E(el)                           ...     -0.02313906 Eh    -14.52 kcal/mol

                             ****ORCA TERMINATED NORMALLY****
TOTAL RUN TIME: 0 days 0 hours 16 minutes 14 seconds 785 msec
