                         Program Version 4.2.0 -  RELEASE  -
|  1> #
|  2> # Cu03C1_D3H wB97X-V/Def2-TZVPPD
|  3> #
|  4> ! wb97x-v def2-tzvppd def2/jk grid4 nofinalgrid opt xyzfile numfreq numgrad
|  5>
|  6> *xyz 1 1
|  7> Cu       0.000000    1.349261   -0.000000
|  8> Cu       1.168494   -0.674630    0.000000
|  9> Cu      -1.168494   -0.674630   -0.000000
| 10> *
| 11>
| 12> %maxcore 5000
| 13>
| 14> %pal
| 15> nprocs = 24
| 16> end
| 17>
| 18>
| 19>                          ****END OF INPUT****
 Total Charge           Charge          ....    1
 Multiplicity           Mult            ....    1
 Number of Electrons    NEL             ....   86
FINAL SINGLE POINT ENERGY     -4920.869829258829
FINAL SINGLE POINT ENERGY     -4920.869884806023
FINAL SINGLE POINT ENERGY     -4920.870816109871
FINAL SINGLE POINT ENERGY     -4920.870837237511
                    ***********************HURRAY********************

CARTESIAN COORDINATES (ANGSTROEM)
---------------------------------
  Cu    -0.000000    1.384839    0.000000
  Cu     1.199031   -0.692419    0.000000
  Cu    -1.199031   -0.692419    0.000000

 Multiplicity           Mult            ....    1
 Number of Electrons    NEL             ....   86
 Basis Dimension        Dim             ....  201

ORBITAL ENERGIES
----------------

  NO   OCC          E(Eh)            E(eV)
   0   2.0000    -323.054408     -8790.7574
   1   2.0000    -323.054407     -8790.7573
   2   2.0000    -323.054398     -8790.7571
   3   2.0000     -39.033135     -1062.1456
   4   2.0000     -39.033135     -1062.1456
   5   2.0000     -39.033083     -1062.1442
   6   2.0000     -34.230944      -931.4714
   7   2.0000     -34.230926      -931.4709
   8   2.0000     -34.230926      -931.4709
   9   2.0000     -34.230319      -931.4543
  10   2.0000     -34.230318      -931.4543
  11   2.0000     -34.230303      -931.4539
  12   2.0000     -34.229439      -931.4304
  13   2.0000     -34.229439      -931.4304
  14   2.0000     -34.229430      -931.4301
  15   2.0000      -4.585407      -124.7753
  16   2.0000      -4.585044      -124.7654
  17   2.0000      -4.585042      -124.7653
  18   2.0000      -3.083225       -83.8988
  19   2.0000      -3.081970       -83.8647
  20   2.0000      -3.081967       -83.8646
  21   2.0000      -3.080300       -83.8192
  22   2.0000      -3.079711       -83.8032
  23   2.0000      -3.079707       -83.8031
  24   2.0000      -3.078115       -83.7598
  25   2.0000      -3.077842       -83.7523
  26   2.0000      -3.077838       -83.7522
  27   2.0000      -0.616273       -16.7696
  28   2.0000      -0.598289       -16.2803
  29   2.0000      -0.598263       -16.2796
  30   2.0000      -0.597018       -16.2457
  31   2.0000      -0.585818       -15.9409
  32   2.0000      -0.582005       -15.8372
  33   2.0000      -0.581995       -15.8369
  34   2.0000      -0.565145       -15.3784
  35   2.0000      -0.565134       -15.3781
  36   2.0000      -0.562496       -15.3063
  37   2.0000      -0.560168       -15.2429
  38   2.0000      -0.560120       -15.2416
  39   2.0000      -0.559068       -15.2130
  40   2.0000      -0.559037       -15.2122
  41   2.0000      -0.543353       -14.7854
  42   2.0000      -0.516895       -14.0654
  43   0.0000      -0.196017        -5.3339
  44   0.0000      -0.195996        -5.3333
  45   0.0000      -0.142491        -3.8774
  46   0.0000      -0.107819        -2.9339
  47   0.0000      -0.086196        -2.3455

MULLIKEN ATOMIC CHARGES
-----------------------
   0 Cu:    0.333452
   1 Cu:    0.333273
   2 Cu:    0.333275
Sum of atomic charges:    1.0000000

LOEWDIN ATOMIC CHARGES
----------------------
   0 Cu:    0.333376
   1 Cu:    0.333312
   2 Cu:    0.333312

  Mayer bond orders larger than 0.100000
B(  0-Cu,  1-Cu) :   0.5201 B(  0-Cu,  2-Cu) :   0.5201 B(  1-Cu,  2-Cu) :   0.5203

FINAL SINGLE POINT ENERGY     -4920.870837632163

DIPOLE MOMENT
-------------
                                X             Y             Z
Electronic contribution:      0.00000       0.00022      -0.00000
Nuclear contribution   :      0.00000       0.00000       0.00000
                        -----------------------------------------
Total Dipole Moment    :      0.00000       0.00022      -0.00000
                        -----------------------------------------
Magnitude (a.u.)       :      0.00022
Magnitude (Debye)      :      0.00056

VIBRATIONAL FREQUENCIES
-----------------------

Scaling factor for frequencies =  1.000000000 (already applied!)

   0:         0.00 cm**-1
   1:         0.00 cm**-1
   2:         0.00 cm**-1
   3:         0.00 cm**-1
   4:         0.00 cm**-1
   5:         0.00 cm**-1
   6:       167.28 cm**-1
   7:       168.69 cm**-1
   8:       237.78 cm**-1

IR SPECTRUM
-----------

 Mode    freq (cm**-1)   T**2         TX         TY         TZ
-------------------------------------------------------------------
   6:       167.28    1.679170  ( -0.032052   1.295431   0.000002)
   7:       168.69    1.676672  ( -1.294466  -0.032075   0.000001)
   8:       237.78    0.000619  (  0.000550  -0.024869   0.000001)

--------------------------
THERMOCHEMISTRY AT 298.15K
--------------------------

Temperature         ... 298.15 K
Pressure            ... 1.00 atm
Total Mass          ... 190.65 AMU

Throughout the following assumptions are being made:
  (1) The electronic state is orbitally nondegenerate
  (2) There are no thermally accessible electronically excited states
  (3) Hindered rotations indicated by low frequency modes are not
      treated as such but are treated as vibrations and this may
      cause some error
  (4) All equations used are the standard statistical mechanics
      equations for an ideal gas
  (5) All vibrations are strictly harmonic

freq.     167.28  E(vib)   ...       0.39
freq.     168.69  E(vib)   ...       0.38
freq.     237.78  E(vib)   ...       0.32

------------
INNER ENERGY
------------

The inner energy is: U= E(el) + E(ZPE) + E(vib) + E(rot) + E(trans)
    E(el)   - is the total energy from the electronic structure calculation
              = E(kin-el) + E(nuc-el) + E(el-el) + E(nuc-nuc)
    E(ZPE)  - the the zero temperature vibrational energy from the frequency calculation
    E(vib)  - the the finite temperature correction to E(ZPE) due to population
              of excited vibrational states
    E(rot)  - is the rotational thermal energy
    E(trans)- is the translational thermal energy

Summary of contributions to the inner energy U:
Electronic energy                ...  -4920.87083763 Eh
Zero point energy                ...      0.00130710 Eh       0.82 kcal/mol
Thermal vibrational correction   ...      0.00172921 Eh       1.09 kcal/mol
Thermal rotational correction    ...      0.00141627 Eh       0.89 kcal/mol
Thermal translational correction ...      0.00141627 Eh       0.89 kcal/mol
-----------------------------------------------------------------------
Total thermal energy                  -4920.86496877 Eh

Summary of corrections to the electronic energy:
(perhaps to be used in another calculation)
Total thermal correction                  0.00456176 Eh       2.86 kcal/mol
Non-thermal (ZPE) correction              0.00130710 Eh       0.82 kcal/mol
-----------------------------------------------------------------------
Total correction                          0.00586885 Eh       3.68 kcal/mol

--------
ENTHALPY
--------

The enthalpy is H = U + kB*T
                kB is Boltzmann's constant
Total free energy                 ...  -4920.86496877 Eh
Thermal Enthalpy correction       ...      0.00094421 Eh       0.59 kcal/mol
-----------------------------------------------------------------------
Total Enthalpy                    ...  -4920.86402457 Eh

Note: Rotational entropy computed according to Herzberg
Infrared and Raman Spectra, Chapter V,1, Van Nostrand Reinhold, 1945
Point Group:  C2v, Symmetry Number:   2
Rotational constants in cm-1:     0.092255     0.092213     0.046117

Vibrational entropy computed according to the QRRHO of S. Grimme
Chem.Eur.J. 2012 18 9955

-------
ENTROPY
-------

The entropy contributions are T*S = T*(S(el)+S(vib)+S(rot)+S(trans))
     S(el)   - electronic entropy
     S(vib)  - vibrational entropy
     S(rot)  - rotational entropy
     S(trans)- translational entropy
The entropies will be listed as mutliplied by the temperature to get
units of energy

Electronic entropy                ...      0.00000000 Eh      0.00 kcal/mol
Vibrational entropy               ...      0.00319020 Eh      2.00 kcal/mol
Rotational entropy                ...      0.01255916 Eh      7.88 kcal/mol
Translational entropy             ...      0.01978512 Eh     12.42 kcal/mol
-----------------------------------------------------------------------
Final entropy term                ...      0.03553448 Eh     22.30 kcal/mol

In case the symmetry of your molecule has not been determined correctly
or in case you have a reason to use a different symmetry number we print
out the resulting rotational entropy values for sn=1,12 :
 --------------------------------------------------------
|  sn= 1 | S(rot)=       0.01321362 Eh      8.29 kcal/mol|
|  sn= 2 | S(rot)=       0.01255916 Eh      7.88 kcal/mol|
|  sn= 3 | S(rot)=       0.01217633 Eh      7.64 kcal/mol|
|  sn= 4 | S(rot)=       0.01190470 Eh      7.47 kcal/mol|
|  sn= 5 | S(rot)=       0.01169402 Eh      7.34 kcal/mol|
|  sn= 6 | S(rot)=       0.01152187 Eh      7.23 kcal/mol|
|  sn= 7 | S(rot)=       0.01137632 Eh      7.14 kcal/mol|
|  sn= 8 | S(rot)=       0.01125025 Eh      7.06 kcal/mol|
|  sn= 9 | S(rot)=       0.01113904 Eh      6.99 kcal/mol|
|  sn=10 | S(rot)=       0.01103956 Eh      6.93 kcal/mol|
|  sn=11 | S(rot)=       0.01094957 Eh      6.87 kcal/mol|
|  sn=12 | S(rot)=       0.01086741 Eh      6.82 kcal/mol|
 --------------------------------------------------------

-------------------
GIBBS FREE ENERGY
-------------------

The Gibbs free energy is G = H - T*S

Total enthalpy                    ...  -4920.86402457 Eh
Total entropy correction          ...     -0.03553448 Eh    -22.30 kcal/mol
-----------------------------------------------------------------------
Final Gibbs free energy         ...  -4920.89955904 Eh

For completeness - the Gibbs free energy minus the electronic energy
G-E(el)                           ...     -0.02872142 Eh    -18.02 kcal/mol

                             ****ORCA TERMINATED NORMALLY****
TOTAL RUN TIME: 0 days 1 hours 13 minutes 51 seconds 46 msec
