                         Program Version 4.2.0 -  RELEASE  -
|  1> #
|  2> # Cu03N0_D3H wB97X-V/Def2-TZVPPD
|  3> #
|  4> ! wb97x-v def2-tzvppd def2/jk grid4 nofinalgrid opt xyzfile numfreq numgrad
|  5>
|  6> *xyz 0 2
|  7> Cu       0.000000    1.346828   -0.000000
|  8> Cu       1.166387   -0.673414   -0.000000
|  9> Cu      -1.166387   -0.673414   -0.000000
| 10> *
| 11>
| 12> %maxcore 5000
| 13>
| 14> %pal
| 15> nprocs = 24
| 16> end
| 17>
| 18>
| 19>                          ****END OF INPUT****
 Total Charge           Charge          ....    0
 Multiplicity           Mult            ....    2
 Number of Electrons    NEL             ....   87
FINAL SINGLE POINT ENERGY     -4921.064804583451
FINAL SINGLE POINT ENERGY     -4921.064948483384
ORCA finished by error termination in SCF
FINAL SINGLE POINT ENERGY     -4921.067718973577
FINAL SINGLE POINT ENERGY     -4921.067835057371
FINAL SINGLE POINT ENERGY     -4921.067843770888
FINAL SINGLE POINT ENERGY     -4921.067846675512
FINAL SINGLE POINT ENERGY     -4921.067858289773
FINAL SINGLE POINT ENERGY     -4921.067868752522
FINAL SINGLE POINT ENERGY     -4921.067875685304
FINAL SINGLE POINT ENERGY     -4921.067877110608
                    ***********************HURRAY********************

CARTESIAN COORDINATES (ANGSTROEM)
---------------------------------
  Cu    -0.000581    1.463054    0.000000
  Cu     1.146908   -0.732049    0.000000
  Cu    -1.146326   -0.731005    0.000000

 Multiplicity           Mult            ....    2
 Number of Electrons    NEL             ....   87
 Basis Dimension        Dim             ....  201

ORBITAL ENERGIES
----------------
                 SPIN UP ORBITALS
  NO   OCC          E(Eh)            E(eV)
   0   1.0000    -322.857662     -8785.4036
   1   1.0000    -322.857528     -8785.4000
   2   1.0000    -322.838449     -8784.8808
   3   1.0000     -38.838287     -1056.8435
   4   1.0000     -38.838162     -1056.8401
   5   1.0000     -38.820707     -1056.3651
   6   1.0000     -34.035596      -926.1556
   7   1.0000     -34.035475      -926.1524
   8   1.0000     -34.035228      -926.1456
   9   1.0000     -34.035108      -926.1424
  10   1.0000     -34.034706      -926.1314
  11   1.0000     -34.034578      -926.1280
  12   1.0000     -34.017973      -925.6761
  13   1.0000     -34.017729      -925.6695
  14   1.0000     -34.016225      -925.6285
  15   1.0000      -4.389466      -119.4434
  16   1.0000      -4.388997      -119.4307
  17   1.0000      -4.370240      -118.9203
  18   1.0000      -2.888101       -78.5892
  19   1.0000      -2.884029       -78.4784
  20   1.0000      -2.883373       -78.4606
  21   1.0000      -2.882911       -78.4480
  22   1.0000      -2.882521       -78.4374
  23   1.0000      -2.882173       -78.4279
  24   1.0000      -2.865441       -77.9726
  25   1.0000      -2.865188       -77.9657
  26   1.0000      -2.862190       -77.8841
  27   1.0000      -0.417755       -11.3677
  28   1.0000      -0.405193       -11.0259
  29   1.0000      -0.398920       -10.8552
  30   1.0000      -0.388349       -10.5675
  31   1.0000      -0.386224       -10.5097
  32   1.0000      -0.384641       -10.4666
  33   1.0000      -0.376124       -10.2349
  34   1.0000      -0.365392        -9.9428
  35   1.0000      -0.362048        -9.8518
  36   1.0000      -0.361808        -9.8453
  37   1.0000      -0.355376        -9.6703
  38   1.0000      -0.354411        -9.6440
  39   1.0000      -0.353594        -9.6218
  40   1.0000      -0.350561        -9.5392
  41   1.0000      -0.340917        -9.2768
  42   1.0000      -0.333546        -9.0762
  43   1.0000      -0.202636        -5.5140
  44   0.0000      -0.032037        -0.8718
  45   0.0000       0.015369         0.4182
  46   0.0000       0.028505         0.7757
  47   0.0000       0.052434         1.4268
  48   0.0000       0.054737         1.4895

                 SPIN DOWN ORBITALS
  NO   OCC          E(Eh)            E(eV)
   0   1.0000    -322.857471     -8785.3984
   1   1.0000    -322.857334     -8785.3947
   2   1.0000    -322.837813     -8784.8635
   3   1.0000     -38.838124     -1056.8391
   4   1.0000     -38.837997     -1056.8356
   5   1.0000     -38.820086     -1056.3482
   6   1.0000     -34.035482      -926.1525
   7   1.0000     -34.035362      -926.1493
   8   1.0000     -34.034870      -926.1359
   9   1.0000     -34.034748      -926.1326
  10   1.0000     -34.034695      -926.1311
  11   1.0000     -34.034566      -926.1276
  12   1.0000     -34.017443      -925.6617
  13   1.0000     -34.017208      -925.6553
  14   1.0000     -34.016077      -925.6245
  15   1.0000      -4.389025      -119.4315
  16   1.0000      -4.388555      -119.4187
  17   1.0000      -4.368627      -118.8764
  18   1.0000      -2.887539       -78.5739
  19   1.0000      -2.883811       -78.4725
  20   1.0000      -2.882877       -78.4471
  21   1.0000      -2.882322       -78.4320
  22   1.0000      -2.882175       -78.4280
  23   1.0000      -2.881981       -78.4227
  24   1.0000      -2.864602       -77.9498
  25   1.0000      -2.863512       -77.9201
  26   1.0000      -2.861025       -77.8524
  27   1.0000      -0.415821       -11.3151
  28   1.0000      -0.403391       -10.9768
  29   1.0000      -0.398543       -10.8449
  30   1.0000      -0.385905       -10.5010
  31   1.0000      -0.383705       -10.4411
  32   1.0000      -0.383300       -10.4301
  33   1.0000      -0.375503       -10.2180
  34   1.0000      -0.364234        -9.9113
  35   1.0000      -0.361766        -9.8442
  36   1.0000      -0.361476        -9.8363
  37   1.0000      -0.352852        -9.6016
  38   1.0000      -0.351654        -9.5690
  39   1.0000      -0.350197        -9.5294
  40   1.0000      -0.348506        -9.4833
  41   1.0000      -0.337099        -9.1729
  42   1.0000      -0.319870        -8.7041
  43   0.0000      -0.026563        -0.7228
  44   0.0000      -0.013450        -0.3660
  45   0.0000       0.019615         0.5337
  46   0.0000       0.044000         1.1973
  47   0.0000       0.068706         1.8696

MULLIKEN ATOMIC CHARGES AND SPIN POPULATIONS
--------------------------------------------
   0 Cu:   -0.099595    0.630561
   1 Cu:    0.049149    0.186821
   2 Cu:    0.050446    0.182618
Sum of atomic charges         :   -0.0000000

LOEWDIN ATOMIC CHARGES AND SPIN POPULATIONS
-------------------------------------------
   0 Cu:   -0.020761    0.407211
   1 Cu:    0.010497    0.296598
   2 Cu:    0.010263    0.296191

  Mayer bond orders larger than 0.100000
B(  0-Cu,  1-Cu) :   0.3613 B(  0-Cu,  2-Cu) :   0.3638 B(  1-Cu,  2-Cu) :   0.8353

FINAL SINGLE POINT ENERGY     -4921.067877205180

DIPOLE MOMENT
-------------
                                X             Y             Z
Electronic contribution:     -0.00115      -0.35919       0.00000
Nuclear contribution   :      0.00000       0.00000       0.00000
                        -----------------------------------------
Total Dipole Moment    :     -0.00115      -0.35919       0.00000
                        -----------------------------------------
Magnitude (a.u.)       :      0.35920
Magnitude (Debye)      :      0.91301

VIBRATIONAL FREQUENCIES
-----------------------

Scaling factor for frequencies =  1.000000000 (already applied!)

   0:         0.00 cm**-1
   1:         0.00 cm**-1
   2:         0.00 cm**-1
   3:         0.00 cm**-1
   4:         0.00 cm**-1
   5:         0.00 cm**-1
   6:      -107.47 cm**-1 ***imaginary mode***
   7:       168.42 cm**-1
   8:       254.46 cm**-1

IR SPECTRUM
-----------

 Mode    freq (cm**-1)   T**2         TX         TY         TZ
-------------------------------------------------------------------
   7:       168.42    0.184417  (  0.011132  -0.429294   0.000000)
   8:       254.46    1.863841  ( -0.024910  -1.364998  -0.000011)

--------------------------
THERMOCHEMISTRY AT 298.15K
--------------------------

Temperature         ... 298.15 K
Pressure            ... 1.00 atm
Total Mass          ... 190.65 AMU

Throughout the following assumptions are being made:
  (1) The electronic state is orbitally nondegenerate
      but the spin degeneracy is treated
  (2) There are no thermally accessible electronically excited states
  (3) Hindered rotations indicated by low frequency modes are not
      treated as such but are treated as vibrations and this may
      cause some error
  (4) All equations used are the standard statistical mechanics
      equations for an ideal gas
  (5) All vibrations are strictly harmonic

freq.     168.42  E(vib)   ...       0.38
freq.     254.46  E(vib)   ...       0.30

------------
INNER ENERGY
------------

The inner energy is: U= E(el) + E(ZPE) + E(vib) + E(rot) + E(trans)
    E(el)   - is the total energy from the electronic structure calculation
              = E(kin-el) + E(nuc-el) + E(el-el) + E(nuc-nuc)
    E(ZPE)  - the the zero temperature vibrational energy from the frequency calculation
    E(vib)  - the the finite temperature correction to E(ZPE) due to population
              of excited vibrational states
    E(rot)  - is the rotational thermal energy
    E(trans)- is the translational thermal energy

Summary of contributions to the inner energy U:
Electronic energy                ...  -4921.06787721 Eh
Zero point energy                ...      0.00096339 Eh       0.60 kcal/mol
Thermal vibrational correction   ...      0.00109219 Eh       0.69 kcal/mol
Thermal rotational correction    ...      0.00141627 Eh       0.89 kcal/mol
Thermal translational correction ...      0.00141627 Eh       0.89 kcal/mol
-----------------------------------------------------------------------
Total thermal energy                  -4921.06298908 Eh

Summary of corrections to the electronic energy:
(perhaps to be used in another calculation)
Total thermal correction                  0.00392474 Eh       2.46 kcal/mol
Non-thermal (ZPE) correction              0.00096339 Eh       0.60 kcal/mol
-----------------------------------------------------------------------
Total correction                          0.00488813 Eh       3.07 kcal/mol

--------
ENTHALPY
--------

The enthalpy is H = U + kB*T
                kB is Boltzmann's constant
Total free energy                 ...  -4921.06298908 Eh
Thermal Enthalpy correction       ...      0.00094421 Eh       0.59 kcal/mol
-----------------------------------------------------------------------
Total Enthalpy                    ...  -4921.06204487 Eh

Note: Rotational entropy computed according to Herzberg
Infrared and Raman Spectra, Chapter V,1, Van Nostrand Reinhold, 1945
Point Group:  Cs, Symmetry Number:   1
Rotational constants in cm-1:     0.100883     0.082617     0.045420

Vibrational entropy computed according to the QRRHO of S. Grimme
Chem.Eur.J. 2012 18 9955

-------
ENTROPY
-------

The entropy contributions are T*S = T*(S(el)+S(vib)+S(rot)+S(trans))
     S(el)   - electronic entropy
     S(vib)  - vibrational entropy
     S(rot)  - rotational entropy
     S(trans)- translational entropy
The entropies will be listed as mutliplied by the temperature to get
units of energy

Electronic entropy                ...      0.00065446 Eh      0.41 kcal/mol
Vibrational entropy               ...      0.00196946 Eh      1.24 kcal/mol
Rotational entropy                ...      0.01323048 Eh      8.30 kcal/mol
Translational entropy             ...      0.01978512 Eh     12.42 kcal/mol
-----------------------------------------------------------------------
Final entropy term                ...      0.03563952 Eh     22.36 kcal/mol

In case the symmetry of your molecule has not been determined correctly
or in case you have a reason to use a different symmetry number we print
out the resulting rotational entropy values for sn=1,12 :
 --------------------------------------------------------
|  sn= 1 | S(rot)=       0.01323048 Eh      8.30 kcal/mol|
|  sn= 2 | S(rot)=       0.01257602 Eh      7.89 kcal/mol|
|  sn= 3 | S(rot)=       0.01219319 Eh      7.65 kcal/mol|
|  sn= 4 | S(rot)=       0.01192156 Eh      7.48 kcal/mol|
|  sn= 5 | S(rot)=       0.01171088 Eh      7.35 kcal/mol|
|  sn= 6 | S(rot)=       0.01153873 Eh      7.24 kcal/mol|
|  sn= 7 | S(rot)=       0.01139318 Eh      7.15 kcal/mol|
|  sn= 8 | S(rot)=       0.01126711 Eh      7.07 kcal/mol|
|  sn= 9 | S(rot)=       0.01115590 Eh      7.00 kcal/mol|
|  sn=10 | S(rot)=       0.01105642 Eh      6.94 kcal/mol|
|  sn=11 | S(rot)=       0.01096643 Eh      6.88 kcal/mol|
|  sn=12 | S(rot)=       0.01088427 Eh      6.83 kcal/mol|
 --------------------------------------------------------

-------------------
GIBBS FREE ENERGY
-------------------

The Gibbs free energy is G = H - T*S

Total enthalpy                    ...  -4921.06204487 Eh
Total entropy correction          ...     -0.03563952 Eh    -22.36 kcal/mol
-----------------------------------------------------------------------
Final Gibbs free energy         ...  -4921.09768438 Eh

For completeness - the Gibbs free energy minus the electronic energy
G-E(el)                           ...     -0.02980718 Eh    -18.70 kcal/mol

                             ****ORCA TERMINATED NORMALLY****
TOTAL RUN TIME: 0 days 3 hours 10 minutes 35 seconds 611 msec
