                         Program Version 4.2.0 -  RELEASE  -
|  1> #
|  2> # Ag01N0_H ri-DSD-BLYP/2013-D3BJ/Def2-TZVPPD
|  3> #
|  4> ! rijk ri-dsd-blyp/2013 d3bj def2-tzvppd def2/jk def2-tzvppd/c grid4 nofinalgrid
|  5>
|  6> *xyz 0 1
|  7> Ag       0.000000    0.000000    0.033547
|  8> H        0.000000    0.000000   -1.576706
|  9> *
| 10>
| 11> %maxcore 5000
| 12>
| 13> %pal
| 14> nprocs = 24
| 15> end
| 16>
| 17>
| 18>                          ****END OF INPUT****

CARTESIAN COORDINATES (ANGSTROEM)
---------------------------------
  Ag     0.000000    0.000000    0.033547
  H      0.000000    0.000000   -1.576706

 Total Charge           Charge          ....    0
 Multiplicity           Mult            ....    1
 Number of Electrons    NEL             ....   20
 Basis Dimension        Dim             ....   73

ORBITAL ENERGIES
----------------

  NO   OCC          E(Eh)            E(eV)
   0   2.0000      -4.133609      -112.4812
   1   2.0000      -2.639295       -71.8189
   2   2.0000      -2.633741       -71.6677
   3   2.0000      -2.633741       -71.6677
   4   2.0000      -0.494467       -13.4551
   5   2.0000      -0.461381       -12.5548
   6   2.0000      -0.461381       -12.5548
   7   2.0000      -0.455925       -12.4064
   8   2.0000      -0.455925       -12.4064
   9   2.0000      -0.300733        -8.1834
  10   0.0000      -0.022802        -0.6205
  11   0.0000       0.038078         1.0362
  12   0.0000       0.038078         1.0362
  13   0.0000       0.111646         3.0380
  14   0.0000       0.154641         4.2080

MULLIKEN ATOMIC CHARGES
-----------------------
   0 Ag:    0.125170
   1 H :   -0.125170
Sum of atomic charges:   -0.0000000

LOEWDIN ATOMIC CHARGES
----------------------
   0 Ag:    0.325157
   1 H :   -0.325157

  Mayer bond orders larger than 0.100000
B(  0-Ag,  1-H ) :   1.0458

MP2 TOTAL ENERGY:     -147.430909763 Eh
Dispersion correction           -0.000634130
FINAL SINGLE POINT ENERGY      -147.431543893114

DIPOLE MOMENT
-------------
                                X             Y             Z
Electronic contribution:     -0.00000       0.00000       3.92074
Nuclear contribution   :      0.00000       0.00000      -2.47950
                        -----------------------------------------
Total Dipole Moment    :     -0.00000       0.00000       1.44123
                        -----------------------------------------
Magnitude (a.u.)       :      1.44123
Magnitude (Debye)      :      3.66333

Rotational constants in cm-1:     0.000000     6.510099     6.510099
Rotational constants in MHz :     0.000000 195167.857171 195167.857171

                             ****ORCA TERMINATED NORMALLY****
TOTAL RUN TIME: 0 days 0 hours 0 minutes 4 seconds 557 msec
