                         Program Version 4.2.0 -  RELEASE  -
|  1> #
|  2> # Ag01N0_F ri-DSD-BLYP/2013-D3BJ/Def2-TZVPPD
|  3> #
|  4> ! rijk ri-dsd-blyp/2013 d3bj def2-tzvppd def2/jk def2-tzvppd/c grid4 nofinalgrid
|  5>
|  6> *xyz 0 1
|  7> Ag       0.000000    0.000000    0.317712
|  8> F        0.000000    0.000000   -1.659163
|  9> *
| 10>
| 11> %maxcore 5000
| 12>
| 13> %pal
| 14> nprocs = 24
| 15> end
| 16>
| 17>
| 18>                          ****END OF INPUT****

CARTESIAN COORDINATES (ANGSTROEM)
---------------------------------
  Ag     0.000000    0.000000    0.317712
  F      0.000000    0.000000   -1.659163

 Total Charge           Charge          ....    0
 Multiplicity           Mult            ....    1
 Number of Electrons    NEL             ....   28
 Basis Dimension        Dim             ....   96

ORBITAL ENERGIES
----------------

  NO   OCC          E(Eh)            E(eV)
   0   2.0000     -25.563611      -695.6212
   1   2.0000      -4.151313      -112.9630
   2   2.0000      -2.656319       -72.2821
   3   2.0000      -2.656319       -72.2821
   4   2.0000      -2.655626       -72.2632
   5   2.0000      -1.257927       -34.2299
   6   2.0000      -0.518697       -14.1145
   7   2.0000      -0.497709       -13.5434
   8   2.0000      -0.497709       -13.5434
   9   2.0000      -0.482141       -13.1197
  10   2.0000      -0.482141       -13.1197
  11   2.0000      -0.401667       -10.9299
  12   2.0000      -0.401667       -10.9299
  13   2.0000      -0.380470       -10.3531
  14   0.0000      -0.056388        -1.5344
  15   0.0000       0.037505         1.0206
  16   0.0000       0.037505         1.0206
  17   0.0000       0.074619         2.0305
  18   0.0000       0.139309         3.7908

MULLIKEN ATOMIC CHARGES
-----------------------
   0 Ag:    0.804903
   1 F :   -0.804903
Sum of atomic charges:   -0.0000000

LOEWDIN ATOMIC CHARGES
----------------------
   0 Ag:    0.769419
   1 F :   -0.769419

  Mayer bond orders larger than 0.100000
B(  0-Ag,  1-F ) :   0.2985

MP2 TOTAL ENERGY:     -246.662017822 Eh
Dispersion correction           -0.000799400
FINAL SINGLE POINT ENERGY      -246.662817221917

DIPOLE MOMENT
-------------
                                X             Y             Z
Electronic contribution:      0.00000      -0.00000      20.54076
Nuclear contribution   :      0.00000       0.00000     -17.95816
                        -----------------------------------------
Total Dipole Moment    :      0.00000      -0.00000       2.58260
                        -----------------------------------------
Magnitude (a.u.)       :      2.58260
Magnitude (Debye)      :      6.56446

Rotational constants in cm-1:     0.000000     0.267044     0.267044
Rotational constants in MHz :     0.000000  8005.762772  8005.762772

                             ****ORCA TERMINATED NORMALLY****
TOTAL RUN TIME: 0 days 0 hours 0 minutes 5 seconds 125 msec
