                         Program Version 4.2.0 -  RELEASE  -
|  1> #
|  2> # Ag02N0 ri-DSD-BLYP/2013-D3BJ/Def2-TZVPPD
|  3> #
|  4> ! rijk ri-dsd-blyp/2013 d3bj def2-tzvppd def2/jk def2-tzvppd/c grid4 nofinalgrid
|  5>
|  6> *xyz 0 1
|  7> Ag       0.000000    0.000000    1.261821
|  8> Ag       0.000000    0.000000   -1.261821
|  9> *
| 10>
| 11> %maxcore 5000
| 12>
| 13> %pal
| 14> nprocs = 24
| 15> end
| 16>
| 17>
| 18>                          ****END OF INPUT****

CARTESIAN COORDINATES (ANGSTROEM)
---------------------------------
  Ag     0.000000    0.000000    1.261821
  Ag     0.000000    0.000000   -1.261821

 Total Charge           Charge          ....    0
 Multiplicity           Mult            ....    1
 Number of Electrons    NEL             ....   38
 Basis Dimension        Dim             ....  112

ORBITAL ENERGIES
----------------

  NO   OCC          E(Eh)            E(eV)
   0   2.0000      -4.107422      -111.7686
   1   2.0000      -4.106614      -111.7467
   2   2.0000      -2.616399       -71.1958
   3   2.0000      -2.609237       -71.0009
   4   2.0000      -2.609237       -71.0009
   5   2.0000      -2.608493       -70.9807
   6   2.0000      -2.608493       -70.9807
   7   2.0000      -2.607634       -70.9573
   8   2.0000      -0.476264       -12.9598
   9   2.0000      -0.458308       -12.4712
  10   2.0000      -0.458308       -12.4712
  11   2.0000      -0.436974       -11.8907
  12   2.0000      -0.436973       -11.8906
  13   2.0000      -0.428881       -11.6704
  14   2.0000      -0.428879       -11.6704
  15   2.0000      -0.414337       -11.2747
  16   2.0000      -0.414337       -11.2747
  17   2.0000      -0.403533       -10.9807
  18   2.0000      -0.227157        -6.1813
  19   0.0000      -0.028096        -0.7645
  20   0.0000       0.025908         0.7050
  21   0.0000       0.025908         0.7050
  22   0.0000       0.047603         1.2953
  23   0.0000       0.084133         2.2894

MULLIKEN ATOMIC CHARGES
-----------------------
   0 Ag:    0.000002
   1 Ag:   -0.000002
Sum of atomic charges:    0.0000000

LOEWDIN ATOMIC CHARGES
----------------------
   0 Ag:    0.000000
   1 Ag:   -0.000000

  Mayer bond orders larger than 0.100000
B(  0-Ag,  1-Ag) :   1.0288

MP2 TOTAL ENERGY:     -293.751373848 Eh
Dispersion correction           -0.004234218
FINAL SINGLE POINT ENERGY      -293.755608065799

DIPOLE MOMENT
-------------
                                X             Y             Z
Electronic contribution:      0.00000      -0.00000       0.00000
Nuclear contribution   :      0.00000       0.00000       0.00000
                        -----------------------------------------
Total Dipole Moment    :      0.00000      -0.00000       0.00000
                        -----------------------------------------
Magnitude (a.u.)       :      0.00000
Magnitude (Debye)      :      0.00000

Rotational constants in cm-1:     0.000000     0.049076     0.049076
Rotational constants in MHz :     0.000000  1471.266775  1471.266775

                             ****ORCA TERMINATED NORMALLY****
TOTAL RUN TIME: 0 days 0 hours 0 minutes 6 seconds 425 msec
