                         Program Version 4.2.0 -  RELEASE  -
|  1> #
|  2> # Ag03N0_LIN ri-DSD-BLYP/2013-D3BJ/Def2-TZVPPD
|  3> #
|  4> ! rijk ri-dsd-blyp/2013 d3bj def2-tzvppd def2/jk def2-tzvppd/c grid4 nofinalgrid
|  5>
|  6> *xyz 0 2
|  7> Ag       0.000000    0.000000    0.000000
|  8> Ag       0.000000    0.000000    2.592532
|  9> Ag       0.000000    0.000000   -2.592532
| 10> *
| 11>
| 12> %maxcore 5000
| 13>
| 14> %pal
| 15> nprocs = 24
| 16> end
| 17>
| 18>
| 19>                          ****END OF INPUT****

CARTESIAN COORDINATES (ANGSTROEM)
---------------------------------
  Ag     0.000000    0.000000    0.000000
  Ag     0.000000    0.000000    2.592532
  Ag     0.000000    0.000000   -2.592532

 Total Charge           Charge          ....    0
 Multiplicity           Mult            ....    2
 Number of Electrons    NEL             ....   57
 Basis Dimension        Dim             ....  168

ORBITAL ENERGIES
----------------
                 SPIN UP ORBITALS
  NO   OCC          E(Eh)            E(eV)
   0   1.0000      -4.119416      -112.0950
   1   1.0000      -4.119407      -112.0948
   2   1.0000      -4.102670      -111.6393
   3   1.0000      -2.624672       -71.4210
   4   1.0000      -2.623187       -71.3805
   5   1.0000      -2.620554       -71.3089
   6   1.0000      -2.620554       -71.3089
   7   1.0000      -2.620549       -71.3088
   8   1.0000      -2.620549       -71.3088
   9   1.0000      -2.607420       -70.9515
  10   1.0000      -2.603669       -70.8494
  11   1.0000      -2.603669       -70.8494
  12   1.0000      -0.493932       -13.4406
  13   1.0000      -0.469376       -12.7724
  14   1.0000      -0.469376       -12.7724
  15   1.0000      -0.451920       -12.2974
  16   1.0000      -0.450575       -12.2608
  17   1.0000      -0.450575       -12.2608
  18   1.0000      -0.447753       -12.1840
  19   1.0000      -0.447753       -12.1840
  20   1.0000      -0.446615       -12.1530
  21   1.0000      -0.446614       -12.1530
  22   1.0000      -0.425657       -11.5827
  23   1.0000      -0.425656       -11.5827
  24   1.0000      -0.410922       -11.1818
  25   1.0000      -0.410922       -11.1818
  26   1.0000      -0.398899       -10.8546
  27   1.0000      -0.259445        -7.0598
  28   1.0000      -0.215697        -5.8694
  29   0.0000      -0.018288        -0.4976
  30   0.0000       0.012250         0.3333
  31   0.0000       0.012250         0.3333
  32   0.0000       0.041291         1.1236
  33   0.0000       0.044075         1.1993

                 SPIN DOWN ORBITALS
  NO   OCC          E(Eh)            E(eV)
   0   1.0000      -4.118036      -112.0575
   1   1.0000      -4.118026      -112.0572
   2   1.0000      -4.103608      -111.6648
   3   1.0000      -2.625294       -71.4379
   4   1.0000      -2.623999       -71.4026
   5   1.0000      -2.621396       -71.3318
   6   1.0000      -2.621396       -71.3318
   7   1.0000      -2.621374       -71.3312
   8   1.0000      -2.621374       -71.3312
   9   1.0000      -2.606941       -70.9385
  10   1.0000      -2.604487       -70.8717
  11   1.0000      -2.604487       -70.8717
  12   1.0000      -0.490977       -13.3602
  13   1.0000      -0.466919       -12.7055
  14   1.0000      -0.466919       -12.7055
  15   1.0000      -0.450049       -12.2464
  16   1.0000      -0.447794       -12.1851
  17   1.0000      -0.447794       -12.1851
  18   1.0000      -0.445090       -12.1115
  19   1.0000      -0.445089       -12.1115
  20   1.0000      -0.443768       -12.0755
  21   1.0000      -0.443767       -12.0755
  22   1.0000      -0.426731       -11.6119
  23   1.0000      -0.426730       -11.6119
  24   1.0000      -0.411614       -11.2006
  25   1.0000      -0.411614       -11.2006
  26   1.0000      -0.397410       -10.8141
  27   1.0000      -0.226139        -6.1536
  28   0.0000      -0.065435        -1.7806
  29   0.0000       0.001595         0.0434
  30   0.0000       0.020122         0.5475
  31   0.0000       0.020122         0.5475
  32   0.0000       0.056459         1.5363

MULLIKEN ATOMIC CHARGES AND SPIN POPULATIONS
--------------------------------------------
   0 Ag:   -0.035043   -0.243978
   1 Ag:    0.017521    0.621985
   2 Ag:    0.017522    0.621993
Sum of atomic charges         :   -0.0000000

LOEWDIN ATOMIC CHARGES AND SPIN POPULATIONS
-------------------------------------------
   0 Ag:   -0.198908    0.261221
   1 Ag:    0.099454    0.369389
   2 Ag:    0.099454    0.369390

  Mayer bond orders larger than 0.100000
B(  0-Ag,  1-Ag) :   0.5572 B(  0-Ag,  2-Ag) :   0.5572 B(  1-Ag,  2-Ag) :   0.1037

MP2 TOTAL ENERGY:     -440.621591136 Eh
Dispersion correction           -0.008149061
FINAL SINGLE POINT ENERGY      -440.629740197086

DIPOLE MOMENT
-------------
                                X             Y             Z
Electronic contribution:     -0.00000      -0.00000      -0.00000
Nuclear contribution   :      0.00000       0.00000       0.00000
                        -----------------------------------------
Total Dipole Moment    :     -0.00000      -0.00000      -0.00000
                        -----------------------------------------
Magnitude (a.u.)       :      0.00000
Magnitude (Debye)      :      0.00000

Rotational constants in cm-1:     0.000000     0.011626     0.011626
Rotational constants in MHz :     0.000000   348.528806   348.528806

                             ****ORCA TERMINATED NORMALLY****
TOTAL RUN TIME: 0 days 0 hours 0 minutes 11 seconds 90 msec
