                         Program Version 4.2.0 -  RELEASE  -
|  1> #
|  2> # Ag03C1_D3H ri-DSD-BLYP/2013-D3BJ/Def2-TZVPPD
|  3> #
|  4> ! rijk ri-dsd-blyp/2013 d3bj def2-tzvppd def2/jk def2-tzvppd/c grid4 nofinalgrid
|  5>
|  6> *xyz 1 1
|  7> Ag       0.000000    1.529877    0.000000
|  8> Ag       1.324912   -0.764938    0.000000
|  9> Ag      -1.324912   -0.764938    0.000000
| 10> *
| 11>
| 12> %maxcore 5000
| 13>
| 14> %pal
| 15> nprocs = 24
| 16> end
| 17>
| 18>
| 19>                          ****END OF INPUT****

CARTESIAN COORDINATES (ANGSTROEM)
---------------------------------
  Ag     0.000000    1.529877    0.000000
  Ag     1.324912   -0.764938    0.000000
  Ag    -1.324912   -0.764938    0.000000

 Total Charge           Charge          ....    1
 Multiplicity           Mult            ....    1
 Number of Electrons    NEL             ....   56
 Basis Dimension        Dim             ....  168

ORBITAL ENERGIES
----------------

  NO   OCC          E(Eh)            E(eV)
   0   2.0000      -4.308617      -117.2434
   1   2.0000      -4.307966      -117.2257
   2   2.0000      -4.307965      -117.2257
   3   2.0000      -2.817225       -76.6606
   4   2.0000      -2.814062       -76.5745
   5   2.0000      -2.814060       -76.5745
   6   2.0000      -2.810548       -76.4789
   7   2.0000      -2.810345       -76.4734
   8   2.0000      -2.809887       -76.4609
   9   2.0000      -2.809887       -76.4609
  10   2.0000      -2.809796       -76.4584
  11   2.0000      -2.809793       -76.4584
  12   2.0000      -0.685214       -18.6456
  13   2.0000      -0.668734       -18.1972
  14   2.0000      -0.668732       -18.1971
  15   2.0000      -0.663843       -18.0641
  16   2.0000      -0.649196       -17.6655
  17   2.0000      -0.646100       -17.5813
  18   2.0000      -0.646097       -17.5812
  19   2.0000      -0.625463       -17.0197
  20   2.0000      -0.625463       -17.0197
  21   2.0000      -0.622474       -16.9384
  22   2.0000      -0.617864       -16.8129
  23   2.0000      -0.617854       -16.8127
  24   2.0000      -0.615133       -16.7386
  25   2.0000      -0.615126       -16.7384
  26   2.0000      -0.593809       -16.1584
  27   2.0000      -0.448573       -12.2063
  28   0.0000      -0.194750        -5.2994
  29   0.0000      -0.194749        -5.2994
  30   0.0000      -0.142321        -3.8727
  31   0.0000      -0.109614        -2.9827
  32   0.0000      -0.092810        -2.5255

MULLIKEN ATOMIC CHARGES
-----------------------
   0 Ag:    0.333334
   1 Ag:    0.333331
   2 Ag:    0.333335
Sum of atomic charges:    1.0000000

LOEWDIN ATOMIC CHARGES
----------------------
   0 Ag:    0.333332
   1 Ag:    0.333334
   2 Ag:    0.333334

  Mayer bond orders larger than 0.100000
B(  0-Ag,  1-Ag) :   0.5037 B(  0-Ag,  2-Ag) :   0.5037 B(  1-Ag,  2-Ag) :   0.5037

MP2 TOTAL ENERGY:     -440.422135501 Eh
Dispersion correction           -0.011324808
FINAL SINGLE POINT ENERGY      -440.433460309550

DIPOLE MOMENT
-------------
                                X             Y             Z
Electronic contribution:     -0.00000      -0.00001      -0.00000
Nuclear contribution   :      0.00000       0.00000       0.00000
                        -----------------------------------------
Total Dipole Moment    :     -0.00000      -0.00001      -0.00000
                        -----------------------------------------
Magnitude (a.u.)       :      0.00001
Magnitude (Debye)      :      0.00002

Rotational constants in cm-1:     0.044514     0.044514     0.022257
Rotational constants in MHz :  1334.482437  1334.482320   667.241189

                             ****ORCA TERMINATED NORMALLY****
TOTAL RUN TIME: 0 days 0 hours 0 minutes 7 seconds 865 msec
