                         Program Version 4.2.0 -  RELEASE  -
|  1> #
|  2> # Ag03N0_D3H ri-DSD-BLYP/2013-D3BJ/Def2-TZVPPD
|  3> #
|  4> ! rijk ri-dsd-blyp/2013 d3bj def2-tzvppd def2/jk def2-tzvppd/c grid4 nofinalgrid
|  5>
|  6> *xyz 0 2
|  7> Ag       0.000000    1.533951   -0.000000
|  8> Ag       1.328441   -0.766976    0.000000
|  9> Ag      -1.328441   -0.766976   -0.000000
| 10> *
| 11>
| 12> %maxcore 5000
| 13>
| 14> %pal
| 15> nprocs = 24
| 16> end
| 17>
| 18>
| 19>                          ****END OF INPUT****

CARTESIAN COORDINATES (ANGSTROEM)
---------------------------------
  Ag     0.000000    1.533951   -0.000000
  Ag     1.328441   -0.766976    0.000000
  Ag    -1.328441   -0.766976   -0.000000

 Total Charge           Charge          ....    0
 Multiplicity           Mult            ....    2
 Number of Electrons    NEL             ....   57
 Basis Dimension        Dim             ....  168

ORBITAL ENERGIES
----------------
                 SPIN UP ORBITALS
  NO   OCC          E(Eh)            E(eV)
   0   1.0000      -4.128381      -112.3390
   1   1.0000      -4.127959      -112.3275
   2   1.0000      -4.105413      -111.7140
   3   1.0000      -2.635468       -71.7147
   4   1.0000      -2.631251       -71.6000
   5   1.0000      -2.631021       -71.5937
   6   1.0000      -2.630213       -71.5717
   7   1.0000      -2.629768       -71.5596
   8   1.0000      -2.629676       -71.5571
   9   1.0000      -2.607280       -70.9477
  10   1.0000      -2.607019       -70.9406
  11   1.0000      -2.605117       -70.8888
  12   1.0000      -0.498832       -13.5739
  13   1.0000      -0.486425       -13.2363
  14   1.0000      -0.478881       -13.0310
  15   1.0000      -0.477006       -12.9800
  16   1.0000      -0.464205       -12.6317
  17   1.0000      -0.463410       -12.6100
  18   1.0000      -0.457647       -12.4532
  19   1.0000      -0.443882       -12.0787
  20   1.0000      -0.439943       -11.9715
  21   1.0000      -0.434676       -11.8281
  22   1.0000      -0.426696       -11.6110
  23   1.0000      -0.425353       -11.5744
  24   1.0000      -0.421532       -11.4705
  25   1.0000      -0.418905       -11.3990
  26   1.0000      -0.404855       -11.0167
  27   1.0000      -0.285258        -7.7623
  28   1.0000      -0.161302        -4.3892
  29   0.0000      -0.047674        -1.2973
  30   0.0000       0.005447         0.1482
  31   0.0000       0.023492         0.6392
  32   0.0000       0.041220         1.1216
  33   0.0000       0.042257         1.1499

                 SPIN DOWN ORBITALS
  NO   OCC          E(Eh)            E(eV)
   0   1.0000      -4.128057      -112.3301
   1   1.0000      -4.127636      -112.3187
   2   1.0000      -4.103586      -111.6643
   3   1.0000      -2.635557       -71.7172
   4   1.0000      -2.631448       -71.6053
   5   1.0000      -2.630882       -71.5899
   6   1.0000      -2.630363       -71.5758
   7   1.0000      -2.629938       -71.5643
   8   1.0000      -2.629067       -71.5406
   9   1.0000      -2.607522       -70.9543
  10   1.0000      -2.606482       -70.9260
  11   1.0000      -2.604955       -70.8844
  12   1.0000      -0.498564       -13.5666
  13   1.0000      -0.484703       -13.1894
  14   1.0000      -0.478776       -13.0282
  15   1.0000      -0.474846       -12.9212
  16   1.0000      -0.462555       -12.5867
  17   1.0000      -0.462429       -12.5833
  18   1.0000      -0.456864       -12.4319
  19   1.0000      -0.443700       -12.0737
  20   1.0000      -0.440130       -11.9765
  21   1.0000      -0.434771       -11.8307
  22   1.0000      -0.424432       -11.5494
  23   1.0000      -0.423315       -11.5190
  24   1.0000      -0.418690       -11.3931
  25   1.0000      -0.415457       -11.3052
  26   1.0000      -0.400882       -10.9085
  27   1.0000      -0.266708        -7.2575
  28   0.0000      -0.040188        -1.0936
  29   0.0000      -0.016746        -0.4557
  30   0.0000       0.011335         0.3084
  31   0.0000       0.034010         0.9255
  32   0.0000       0.059131         1.6090

MULLIKEN ATOMIC CHARGES AND SPIN POPULATIONS
--------------------------------------------
   0 Ag:   -0.137708    0.593849
   1 Ag:    0.068845    0.203088
   2 Ag:    0.068864    0.203062
Sum of atomic charges         :   -0.0000000

LOEWDIN ATOMIC CHARGES AND SPIN POPULATIONS
-------------------------------------------
   0 Ag:   -0.088914    0.466583
   1 Ag:    0.044453    0.266715
   2 Ag:    0.044461    0.266702

  Mayer bond orders larger than 0.100000
B(  0-Ag,  1-Ag) :   0.4738 B(  0-Ag,  2-Ag) :   0.4738 B(  1-Ag,  2-Ag) :   0.7425

MP2 TOTAL ENERGY:     -440.621918427 Eh
Dispersion correction           -0.011254441
FINAL SINGLE POINT ENERGY      -440.633172868254

DIPOLE MOMENT
-------------
                                X             Y             Z
Electronic contribution:     -0.00002      -0.53014       0.00000
Nuclear contribution   :      0.00000       0.00000       0.00000
                        -----------------------------------------
Total Dipole Moment    :     -0.00002      -0.53014       0.00000
                        -----------------------------------------
Magnitude (a.u.)       :      0.53014
Magnitude (Debye)      :      1.34751

Rotational constants in cm-1:     0.044277     0.044277     0.022139
Rotational constants in MHz :  1327.402110  1327.401756   663.700966

                             ****ORCA TERMINATED NORMALLY****
TOTAL RUN TIME: 0 days 0 hours 0 minutes 9 seconds 269 msec
