                         Program Version 4.2.0 -  RELEASE  -
|  1> #
|  2> # Ag03C1_LIN ri-DSD-BLYP/2013-D3BJ/Def2-TZVPPD
|  3> #
|  4> ! rijk ri-dsd-blyp/2013 d3bj def2-tzvppd def2/jk def2-tzvppd/c grid4 nofinalgrid
|  5>
|  6> *xyz 1 1
|  7> Ag       0.000000    0.000000    0.000000
|  8> Ag       0.000000    0.000000    2.629319
|  9> Ag       0.000000    0.000000   -2.629319
| 10> *
| 11>
| 12> %maxcore 5000
| 13>
| 14> %pal
| 15> nprocs = 24
| 16> end
| 17>
| 18>
| 19>                          ****END OF INPUT****

CARTESIAN COORDINATES (ANGSTROEM)
---------------------------------
  Ag     0.000000    0.000000    0.000000
  Ag     0.000000    0.000000    2.629319
  Ag     0.000000    0.000000   -2.629319

 Total Charge           Charge          ....    1
 Multiplicity           Mult            ....    1
 Number of Electrons    NEL             ....   56
 Basis Dimension        Dim             ....  168

ORBITAL ENERGIES
----------------

  NO   OCC          E(Eh)            E(eV)
   0   2.0000      -4.317916      -117.4965
   1   2.0000      -4.317915      -117.4964
   2   2.0000      -4.270645      -116.2102
   3   2.0000      -2.824595       -76.8611
   4   2.0000      -2.824255       -76.8519
   5   2.0000      -2.822262       -76.7977
   6   2.0000      -2.822262       -76.7977
   7   2.0000      -2.822245       -76.7972
   8   2.0000      -2.822245       -76.7972
   9   2.0000      -2.777141       -75.5699
  10   2.0000      -2.770575       -75.3912
  11   2.0000      -2.770575       -75.3912
  12   2.0000      -0.679455       -18.4889
  13   2.0000      -0.658638       -17.9224
  14   2.0000      -0.658638       -17.9224
  15   2.0000      -0.651330       -17.7236
  16   2.0000      -0.649409       -17.6713
  17   2.0000      -0.649409       -17.6713
  18   2.0000      -0.646584       -17.5945
  19   2.0000      -0.646584       -17.5944
  20   2.0000      -0.646260       -17.5856
  21   2.0000      -0.646260       -17.5856
  22   2.0000      -0.592598       -16.1254
  23   2.0000      -0.592598       -16.1254
  24   2.0000      -0.590207       -16.0603
  25   2.0000      -0.590207       -16.0603
  26   2.0000      -0.580939       -15.8082
  27   2.0000      -0.398220       -10.8361
  28   0.0000      -0.247182        -6.7262
  29   0.0000      -0.154983        -4.2173
  30   0.0000      -0.127284        -3.4636
  31   0.0000      -0.127284        -3.4636
  32   0.0000      -0.091807        -2.4982

MULLIKEN ATOMIC CHARGES
-----------------------
   0 Ag:   -0.098158
   1 Ag:    0.549077
   2 Ag:    0.549081
Sum of atomic charges:    1.0000000

LOEWDIN ATOMIC CHARGES
----------------------
   0 Ag:    0.112796
   1 Ag:    0.443602
   2 Ag:    0.443602

  Mayer bond orders larger than 0.100000
B(  0-Ag,  1-Ag) :   0.5404 B(  0-Ag,  2-Ag) :   0.5404 B(  1-Ag,  2-Ag) :   0.2173

MP2 TOTAL ENERGY:     -440.371766550 Eh
Dispersion correction           -0.007897193
FINAL SINGLE POINT ENERGY      -440.379663742517

DIPOLE MOMENT
-------------
                                X             Y             Z
Electronic contribution:      0.00000       0.00000       0.00000
Nuclear contribution   :      0.00000       0.00000       0.00000
                        -----------------------------------------
Total Dipole Moment    :      0.00000       0.00000       0.00000
                        -----------------------------------------
Magnitude (a.u.)       :      0.00000
Magnitude (Debye)      :      0.00000

Rotational constants in cm-1:     0.000000     0.011303     0.011303
Rotational constants in MHz :     0.000000   338.844445   338.844445

                             ****ORCA TERMINATED NORMALLY****
TOTAL RUN TIME: 0 days 0 hours 0 minutes 7 seconds 579 msec
