                         Program Version 4.2.0 -  RELEASE  -
|  1> #
|  2> # Ag04C2_NH3_F ri-DSD-BLYP/2013-D3BJ/Def2-TZVPPD
|  3> #
|  4> ! rijk ri-dsd-blyp/2013 d3bj def2-tzvppd def2/jk def2-tzvppd/c grid4 nofinalgrid
|  5>
|  6> *xyz 2 1
|  7> Ag       0.000000    1.593354   -0.403942
|  8> Ag       1.379885   -0.796677   -0.403942
|  9> Ag      -1.379885   -0.796677   -0.403942
| 10> Ag       0.000000    0.000000    1.894943
| 11> N        0.000000    0.000000   -3.082630
| 12> H        0.808649    0.466874   -3.509356
| 13> H       -0.000000   -0.933748   -3.509356
| 14> H       -0.808649    0.466874   -3.509356
| 15> *
| 16>
| 17> %maxcore 5000
| 18>
| 19> %pal
| 20> nprocs = 24
| 21> end
| 22>
| 23>
| 24>                          ****END OF INPUT****

CARTESIAN COORDINATES (ANGSTROEM)
---------------------------------
  Ag     0.000000    1.593354   -0.403942
  Ag     1.379885   -0.796677   -0.403942
  Ag    -1.379885   -0.796677   -0.403942
  Ag     0.000000    0.000000    1.894943
  N      0.000000    0.000000   -3.082630
  H      0.808649    0.466874   -3.509356
  H     -0.000000   -0.933748   -3.509356
  H     -0.808649    0.466874   -3.509356

 Total Charge           Charge          ....    2
 Multiplicity           Mult            ....    1
 Number of Electrons    NEL             ....   84
 Basis Dimension        Dim             ....  312

ORBITAL ENERGIES
----------------

  NO   OCC          E(Eh)            E(eV)
   0   2.0000     -15.406571      -419.2341
   1   2.0000      -4.466166      -121.5306
   2   2.0000      -4.465778      -121.5200
   3   2.0000      -4.465777      -121.5200
   4   2.0000      -4.459018      -121.3360
   5   2.0000      -2.973841       -80.9223
   6   2.0000      -2.971551       -80.8600
   7   2.0000      -2.971551       -80.8600
   8   2.0000      -2.969807       -80.8126
   9   2.0000      -2.969547       -80.8055
  10   2.0000      -2.969546       -80.8054
  11   2.0000      -2.969021       -80.7912
  12   2.0000      -2.968288       -80.7712
  13   2.0000      -2.968288       -80.7712
  14   2.0000      -2.962890       -80.6243
  15   2.0000      -2.962101       -80.6029
  16   2.0000      -2.962101       -80.6029
  17   2.0000      -1.341032       -36.4913
  18   2.0000      -0.865435       -23.5497
  19   2.0000      -0.865434       -23.5497
  20   2.0000      -0.846616       -23.0376
  21   2.0000      -0.827723       -22.5235
  22   2.0000      -0.824249       -22.4289
  23   2.0000      -0.824243       -22.4288
  24   2.0000      -0.817342       -22.2410
  25   2.0000      -0.817342       -22.2410
  26   2.0000      -0.807193       -21.9648
  27   2.0000      -0.801275       -21.8038
  28   2.0000      -0.801273       -21.8038
  29   2.0000      -0.783970       -21.3329
  30   2.0000      -0.783121       -21.3098
  31   2.0000      -0.783116       -21.3097
  32   2.0000      -0.779365       -21.2076
  33   2.0000      -0.779361       -21.2075
  34   2.0000      -0.778015       -21.1709
  35   2.0000      -0.778014       -21.1708
  36   2.0000      -0.775522       -21.1030
  37   2.0000      -0.758393       -20.6369
  38   2.0000      -0.756282       -20.5795
  39   2.0000      -0.756278       -20.5794
  40   2.0000      -0.709025       -19.2936
  41   2.0000      -0.610361       -16.6088
  42   0.0000      -0.340772        -9.2729
  43   0.0000      -0.340770        -9.2728
  44   0.0000      -0.323494        -8.8027
  45   0.0000      -0.247601        -6.7376
  46   0.0000      -0.229948        -6.2572

MULLIKEN ATOMIC CHARGES
-----------------------
   0 Ag:    0.479875
   1 Ag:    0.479822
   2 Ag:    0.479811
   3 Ag:    0.444281
   4 N :   -0.463170
   5 H :    0.193186
   6 H :    0.193011
   7 H :    0.193184
Sum of atomic charges:    2.0000000

LOEWDIN ATOMIC CHARGES
----------------------
   0 Ag:    0.488799
   1 Ag:    0.488794
   2 Ag:    0.488793
   3 Ag:    0.471283
   4 N :    0.385149
   5 H :   -0.107605
   6 H :   -0.107609
   7 H :   -0.107605

  Mayer bond orders larger than 0.100000
B(  0-Ag,  1-Ag) :   0.3066 B(  0-Ag,  2-Ag) :   0.3066 B(  0-Ag,  3-Ag) :   0.3300
B(  1-Ag,  2-Ag) :   0.3066 B(  1-Ag,  3-Ag) :   0.3300 B(  2-Ag,  3-Ag) :   0.3300
B(  4-N ,  5-H ) :   1.0105 B(  4-N ,  6-H ) :   1.0107 B(  4-N ,  7-H ) :   1.0105

MP2 TOTAL ENERGY:     -643.476649919 Eh
Dispersion correction           -0.023691705
FINAL SINGLE POINT ENERGY      -643.500341623956

DIPOLE MOMENT
-------------
                                X             Y             Z
Electronic contribution:      0.00000       0.00002      41.89022
Nuclear contribution   :      0.00000       0.00000     -43.35494
                        -----------------------------------------
Total Dipole Moment    :      0.00000       0.00002      -1.46472
                        -----------------------------------------
Magnitude (a.u.)       :      1.46472
Magnitude (Debye)      :      3.72301

Rotational constants in cm-1:     0.020453     0.016499     0.016499
Rotational constants in MHz :   613.168216   494.640125   494.640113

                             ****ORCA TERMINATED NORMALLY****
TOTAL RUN TIME: 0 days 0 hours 0 minutes 17 seconds 115 msec
