                         Program Version 4.2.0 -  RELEASE  -
|  1> #
|  2> # Ag04C2_H_F ri-DSD-BLYP/2013-D3BJ/Def2-TZVPPD
|  3> #
|  4> ! rijk ri-dsd-blyp/2013 d3bj def2-tzvppd def2/jk def2-tzvppd/c grid4 nofinalgrid
|  5>
|  6> *xyz 2 2
|  7> Ag       0.000000    1.604405   -0.611776
|  8> Ag       1.389456   -0.802203   -0.611776
|  9> Ag      -1.389456   -0.802203   -0.611776
| 10> Ag       0.000000    0.000000    1.871824
| 11> H        0.000000    0.000000   -1.715373
| 12> *
| 13>
| 14> %maxcore 5000
| 15>
| 16> %pal
| 17> nprocs = 24
| 18> end
| 19>
| 20>
| 21>                          ****END OF INPUT****

CARTESIAN COORDINATES (ANGSTROEM)
---------------------------------
  Ag     0.000000    1.604405   -0.611776
  Ag     1.389456   -0.802203   -0.611776
  Ag    -1.389456   -0.802203   -0.611776
  Ag     0.000000    0.000000    1.871824
  H      0.000000    0.000000   -1.715373

 Total Charge           Charge          ....    2
 Multiplicity           Mult            ....    2
 Number of Electrons    NEL             ....   75
 Basis Dimension        Dim             ....  241

ORBITAL ENERGIES
----------------
                 SPIN UP ORBITALS
  NO   OCC          E(Eh)            E(eV)
   0   1.0000      -4.502272      -122.5130
   1   1.0000      -4.501920      -122.5035
   2   1.0000      -4.501920      -122.5035
   3   1.0000      -4.478134      -121.8562
   4   1.0000      -3.010548       -81.9212
   5   1.0000      -3.007567       -81.8401
   6   1.0000      -3.007567       -81.8401
   7   1.0000      -3.006374       -81.8076
   8   1.0000      -3.005964       -81.7964
   9   1.0000      -3.005962       -81.7964
  10   1.0000      -3.004970       -81.7694
  11   1.0000      -3.004969       -81.7694
  12   1.0000      -3.004243       -81.7496
  13   1.0000      -2.981700       -81.1362
  14   1.0000      -2.980481       -81.1030
  15   1.0000      -2.980480       -81.1030
  16   1.0000      -0.923841       -25.1390
  17   1.0000      -0.873318       -23.7642
  18   1.0000      -0.855879       -23.2896
  19   1.0000      -0.855876       -23.2896
  20   1.0000      -0.845107       -22.9965
  21   1.0000      -0.845106       -22.9965
  22   1.0000      -0.842263       -22.9192
  23   1.0000      -0.829761       -22.5790
  24   1.0000      -0.829758       -22.5789
  25   1.0000      -0.820802       -22.3351
  26   1.0000      -0.820800       -22.3351
  27   1.0000      -0.818498       -22.2725
  28   1.0000      -0.814100       -22.1528
  29   1.0000      -0.814099       -22.1528
  30   1.0000      -0.804818       -21.9002
  31   1.0000      -0.803673       -21.8690
  32   1.0000      -0.803667       -21.8689
  33   1.0000      -0.794104       -21.6087
  34   1.0000      -0.790748       -21.5174
  35   1.0000      -0.790744       -21.5173
  36   1.0000      -0.746482       -20.3128
  37   1.0000      -0.581797       -15.8315
  38   0.0000      -0.367116        -9.9897
  39   0.0000      -0.367115        -9.9897
  40   0.0000      -0.305775        -8.3206
  41   0.0000      -0.267653        -7.2832
  42   0.0000      -0.250547        -6.8177

                 SPIN DOWN ORBITALS
  NO   OCC          E(Eh)            E(eV)
   0   1.0000      -4.499927      -122.4492
   1   1.0000      -4.499579      -122.4398
   2   1.0000      -4.499578      -122.4397
   3   1.0000      -4.477547      -121.8403
   4   1.0000      -3.007152       -81.8288
   5   1.0000      -3.005855       -81.7935
   6   1.0000      -3.005854       -81.7934
   7   1.0000      -3.003704       -81.7349
   8   1.0000      -3.002770       -81.7095
   9   1.0000      -3.002768       -81.7095
  10   1.0000      -3.002194       -81.6938
  11   1.0000      -3.001841       -81.6842
  12   1.0000      -3.001839       -81.6842
  13   1.0000      -2.983147       -81.1755
  14   1.0000      -2.982169       -81.1489
  15   1.0000      -2.982168       -81.1489
  16   1.0000      -0.900319       -24.4989
  17   1.0000      -0.867436       -23.6041
  18   1.0000      -0.855492       -23.2791
  19   1.0000      -0.855490       -23.2791
  20   1.0000      -0.840934       -22.8830
  21   1.0000      -0.840932       -22.8829
  22   1.0000      -0.839712       -22.8497
  23   1.0000      -0.827847       -22.5269
  24   1.0000      -0.827844       -22.5268
  25   1.0000      -0.817843       -22.2546
  26   1.0000      -0.815297       -22.1854
  27   1.0000      -0.815291       -22.1852
  28   1.0000      -0.809650       -22.0317
  29   1.0000      -0.809645       -22.0316
  30   1.0000      -0.802077       -21.8256
  31   1.0000      -0.801948       -21.8221
  32   1.0000      -0.801943       -21.8220
  33   1.0000      -0.793171       -21.5833
  34   1.0000      -0.788750       -21.4630
  35   1.0000      -0.788745       -21.4628
  36   1.0000      -0.710488       -19.3334
  37   0.0000      -0.397785       -10.8243
  38   0.0000      -0.357232        -9.7208
  39   0.0000      -0.357232        -9.7208
  40   0.0000      -0.286094        -7.7850
  41   0.0000      -0.257474        -7.0062

MULLIKEN ATOMIC CHARGES AND SPIN POPULATIONS
--------------------------------------------
   0 Ag:    0.549080    0.053113
   1 Ag:    0.548955    0.053072
   2 Ag:    0.548953    0.053071
   3 Ag:    0.389024    0.527465
   4 H :   -0.036012    0.313279
Sum of atomic charges         :    2.0000000

LOEWDIN ATOMIC CHARGES AND SPIN POPULATIONS
-------------------------------------------
   0 Ag:    0.540557    0.167021
   1 Ag:    0.540552    0.167020
   2 Ag:    0.540552    0.167020
   3 Ag:    0.518415    0.309099
   4 H :   -0.140075    0.189841

  Mayer bond orders larger than 0.100000
B(  0-Ag,  1-Ag) :   0.2516 B(  0-Ag,  2-Ag) :   0.2516 B(  0-Ag,  3-Ag) :   0.2332
B(  0-Ag,  4-H ) :   0.2682 B(  1-Ag,  2-Ag) :   0.2516 B(  1-Ag,  3-Ag) :   0.2332
B(  1-Ag,  4-H ) :   0.2683 B(  2-Ag,  3-Ag) :   0.2332 B(  2-Ag,  4-H ) :   0.2683

MP2 TOTAL ENERGY:     -587.452280425 Eh
Dispersion correction           -0.020237190
FINAL SINGLE POINT ENERGY      -587.472517615186

DIPOLE MOMENT
-------------
                                X             Y             Z
Electronic contribution:      0.00000       0.00001       2.77043
Nuclear contribution   :      0.00000       0.00000      -2.67399
                        -----------------------------------------
Total Dipole Moment    :      0.00000       0.00001       0.09644
                        -----------------------------------------
Magnitude (a.u.)       :      0.09644
Magnitude (Debye)      :      0.24513

Rotational constants in cm-1:     0.020237     0.018353     0.018353
Rotational constants in MHz :   606.690796   550.208253   550.208173

                             ****ORCA TERMINATED NORMALLY****
TOTAL RUN TIME: 0 days 0 hours 0 minutes 16 seconds 424 msec
