                         Program Version 4.2.0 -  RELEASE  -
|  1> #
|  2> # Ag04C2_H_E ri-DSD-BLYP/2013-D3BJ/Def2-TZVPPD
|  3> #
|  4> ! rijk ri-dsd-blyp/2013 d3bj def2-tzvppd def2/jk def2-tzvppd/c grid4 nofinalgrid
|  5>
|  6> *xyz 2 2
|  7> Ag      -0.000000    1.374598    1.108828
|  8> Ag      -0.000000   -1.374598    1.108828
|  9> Ag      -1.374988    0.000000   -1.132689
| 10> Ag       1.374988   -0.000000   -1.132689
| 11> H        0.000000    0.000000    2.242952
| 12> *
| 13>
| 14> %maxcore 5000
| 15>
| 16> %pal
| 17> nprocs = 24
| 18> end
| 19>
| 20>
| 21>                          ****END OF INPUT****

CARTESIAN COORDINATES (ANGSTROEM)
---------------------------------
  Ag    -0.000000    1.374598    1.108828
  Ag    -0.000000   -1.374598    1.108828
  Ag    -1.374988    0.000000   -1.132689
  Ag     1.374988   -0.000000   -1.132689
  H      0.000000    0.000000    2.242952

 Total Charge           Charge          ....    2
 Multiplicity           Mult            ....    2
 Number of Electrons    NEL             ....   75
 Basis Dimension        Dim             ....  241

ORBITAL ENERGIES
----------------
                 SPIN UP ORBITALS
  NO   OCC          E(Eh)            E(eV)
   0   1.0000      -4.498862      -122.4203
   1   1.0000      -4.498591      -122.4129
   2   1.0000      -4.493579      -122.2765
   3   1.0000      -4.493310      -122.2692
   4   1.0000      -3.007372       -81.8348
   5   1.0000      -3.004892       -81.7673
   6   1.0000      -3.003192       -81.7210
   7   1.0000      -3.001360       -81.6712
   8   1.0000      -3.000088       -81.6365
   9   1.0000      -2.999536       -81.6215
  10   1.0000      -2.999122       -81.6103
  11   1.0000      -2.996597       -81.5416
  12   1.0000      -2.996573       -81.5409
  13   1.0000      -2.996500       -81.5389
  14   1.0000      -2.996315       -81.5339
  15   1.0000      -2.996176       -81.5301
  16   1.0000      -0.910493       -24.7758
  17   1.0000      -0.866753       -23.5856
  18   1.0000      -0.852172       -23.1888
  19   1.0000      -0.849360       -23.1123
  20   1.0000      -0.847461       -23.0606
  21   1.0000      -0.843736       -22.9592
  22   1.0000      -0.838247       -22.8099
  23   1.0000      -0.831772       -22.6337
  24   1.0000      -0.831156       -22.6169
  25   1.0000      -0.821077       -22.3426
  26   1.0000      -0.817389       -22.2423
  27   1.0000      -0.815716       -22.1968
  28   1.0000      -0.815037       -22.1783
  29   1.0000      -0.811563       -22.0838
  30   1.0000      -0.810723       -22.0609
  31   1.0000      -0.808864       -22.0103
  32   1.0000      -0.806551       -21.9474
  33   1.0000      -0.796345       -21.6697
  34   1.0000      -0.795431       -21.6448
  35   1.0000      -0.790730       -21.5169
  36   1.0000      -0.728526       -19.8242
  37   1.0000      -0.606868       -16.5137
  38   0.0000      -0.364081        -9.9072
  39   0.0000      -0.363146        -9.8817
  40   0.0000      -0.315303        -8.5798
  41   0.0000      -0.263708        -7.1758
  42   0.0000      -0.257443        -7.0054

                 SPIN DOWN ORBITALS
  NO   OCC          E(Eh)            E(eV)
   0   1.0000      -4.494402      -122.2989
   1   1.0000      -4.494134      -122.2916
   2   1.0000      -4.492979      -122.2602
   3   1.0000      -4.492717      -122.2531
   4   1.0000      -3.000338       -81.6434
   5   1.0000      -2.999167       -81.6115
   6   1.0000      -2.998585       -81.5957
   7   1.0000      -2.998061       -81.5814
   8   1.0000      -2.998018       -81.5802
   9   1.0000      -2.997915       -81.5774
  10   1.0000      -2.997235       -81.5589
  11   1.0000      -2.997124       -81.5559
  12   1.0000      -2.996053       -81.5268
  13   1.0000      -2.995932       -81.5235
  14   1.0000      -2.995892       -81.5224
  15   1.0000      -2.995383       -81.5085
  16   1.0000      -0.874413       -23.7940
  17   1.0000      -0.863418       -23.4948
  18   1.0000      -0.849119       -23.1057
  19   1.0000      -0.845903       -23.0182
  20   1.0000      -0.845188       -22.9987
  21   1.0000      -0.839681       -22.8489
  22   1.0000      -0.836564       -22.7641
  23   1.0000      -0.829530       -22.5727
  24   1.0000      -0.827592       -22.5199
  25   1.0000      -0.818010       -22.2592
  26   1.0000      -0.814462       -22.1626
  27   1.0000      -0.813433       -22.1346
  28   1.0000      -0.812146       -22.0996
  29   1.0000      -0.810559       -22.0564
  30   1.0000      -0.808717       -22.0063
  31   1.0000      -0.806685       -21.9510
  32   1.0000      -0.801681       -21.8149
  33   1.0000      -0.795798       -21.6548
  34   1.0000      -0.789985       -21.4966
  35   1.0000      -0.783262       -21.3137
  36   1.0000      -0.680958       -18.5298
  37   0.0000      -0.419861       -11.4250
  38   0.0000      -0.354577        -9.6485
  39   0.0000      -0.352842        -9.6013
  40   0.0000      -0.287064        -7.8114
  41   0.0000      -0.258818        -7.0428

MULLIKEN ATOMIC CHARGES AND SPIN POPULATIONS
--------------------------------------------
   0 Ag:    0.482071    0.009206
   1 Ag:    0.482062    0.009202
   2 Ag:    0.511359    0.299918
   3 Ag:    0.511357    0.299920
   4 H :    0.013150    0.381753
Sum of atomic charges         :    2.0000000

LOEWDIN ATOMIC CHARGES AND SPIN POPULATIONS
-------------------------------------------
   0 Ag:    0.525588    0.183238
   1 Ag:    0.525588    0.183238
   2 Ag:    0.537739    0.200685
   3 Ag:    0.537739    0.200685
   4 H :   -0.126653    0.232154

  Mayer bond orders larger than 0.100000
B(  0-Ag,  1-Ag) :   0.3519 B(  0-Ag,  2-Ag) :   0.1971 B(  0-Ag,  3-Ag) :   0.1971
B(  0-Ag,  4-H ) :   0.4061 B(  1-Ag,  2-Ag) :   0.1971 B(  1-Ag,  3-Ag) :   0.1971
B(  1-Ag,  4-H ) :   0.4061 B(  2-Ag,  3-Ag) :   0.3921

MP2 TOTAL ENERGY:     -587.453469950 Eh
Dispersion correction           -0.019301931
FINAL SINGLE POINT ENERGY      -587.472771880393

DIPOLE MOMENT
-------------
                                X             Y             Z
Electronic contribution:     -0.00000       0.00000      -3.98462
Nuclear contribution   :      0.00000       0.00000       3.49639
                        -----------------------------------------
Total Dipole Moment    :     -0.00000       0.00000      -0.48823
                        -----------------------------------------
Magnitude (a.u.)       :      0.48823
Magnitude (Debye)      :      1.24098

Rotational constants in cm-1:     0.020671     0.017657     0.017653
Rotational constants in MHz :   619.701148   529.337252   529.209018

                             ****ORCA TERMINATED NORMALLY****
TOTAL RUN TIME: 0 days 0 hours 0 minutes 15 seconds 262 msec
