                         Program Version 4.2.0 -  RELEASE  -
|  1> #
|  2> # Ag04C2_NH3_A ri-DSD-BLYP/2013-D3BJ/Def2-TZVPPD
|  3> #
|  4> ! rijk ri-dsd-blyp/2013 d3bj def2-tzvppd def2/jk def2-tzvppd/c grid4 nofinalgrid
|  5>
|  6> *xyz 2 1
|  7> Ag      -0.268639    1.507918    0.000000
|  8> Ag       1.705052   -0.492854   -0.000000
|  9> Ag      -0.647170   -0.911099    1.379441
| 10> Ag      -0.647170   -0.911099   -1.379441
| 11> N       -0.647170    3.675657    0.000000
| 12> H       -0.250844    4.149729    0.817426
| 13> H       -0.250844    4.149729   -0.817426
| 14> H       -1.645581    3.906275    0.000000
| 15> *
| 16>
| 17> %maxcore 5000
| 18>
| 19> %pal
| 20> nprocs = 24
| 21> end
| 22>
| 23>
| 24>                          ****END OF INPUT****

CARTESIAN COORDINATES (ANGSTROEM)
---------------------------------
  Ag    -0.268639    1.507918    0.000000
  Ag     1.705052   -0.492854   -0.000000
  Ag    -0.647170   -0.911099    1.379441
  Ag    -0.647170   -0.911099   -1.379441
  N     -0.647170    3.675657    0.000000
  H     -0.250844    4.149729    0.817426
  H     -0.250844    4.149729   -0.817426
  H     -1.645581    3.906275    0.000000

 Total Charge           Charge          ....    2
 Multiplicity           Mult            ....    1
 Number of Electrons    NEL             ....   84
 Basis Dimension        Dim             ....  312

ORBITAL ENERGIES
----------------

  NO   OCC          E(Eh)            E(eV)
   0   2.0000     -15.425288      -419.7434
   1   2.0000      -4.462612      -121.4338
   2   2.0000      -4.462230      -121.4235
   3   2.0000      -4.462224      -121.4233
   4   2.0000      -4.443555      -120.9153
   5   2.0000      -2.969707       -80.8098
   6   2.0000      -2.967427       -80.7478
   7   2.0000      -2.967423       -80.7477
   8   2.0000      -2.966168       -80.7135
   9   2.0000      -2.965753       -80.7022
  10   2.0000      -2.965747       -80.7021
  11   2.0000      -2.964860       -80.6779
  12   2.0000      -2.964560       -80.6698
  13   2.0000      -2.964556       -80.6697
  14   2.0000      -2.946262       -80.1719
  15   2.0000      -2.946262       -80.1719
  16   2.0000      -2.946171       -80.1694
  17   2.0000      -1.356679       -36.9171
  18   2.0000      -0.884712       -24.0742
  19   2.0000      -0.884707       -24.0741
  20   2.0000      -0.844769       -22.9873
  21   2.0000      -0.824182       -22.4271
  22   2.0000      -0.818249       -22.2657
  23   2.0000      -0.818233       -22.2653
  24   2.0000      -0.808430       -21.9985
  25   2.0000      -0.808428       -21.9984
  26   2.0000      -0.801812       -21.8184
  27   2.0000      -0.794705       -21.6250
  28   2.0000      -0.794179       -21.6107
  29   2.0000      -0.794178       -21.6107
  30   2.0000      -0.780062       -21.2266
  31   2.0000      -0.778124       -21.1738
  32   2.0000      -0.778113       -21.1735
  33   2.0000      -0.774632       -21.0788
  34   2.0000      -0.774631       -21.0788
  35   2.0000      -0.765088       -20.8191
  36   2.0000      -0.765078       -20.8188
  37   2.0000      -0.753809       -20.5122
  38   2.0000      -0.744124       -20.2487
  39   2.0000      -0.744112       -20.2483
  40   2.0000      -0.687087       -18.6966
  41   2.0000      -0.623244       -16.9593
  42   0.0000      -0.336514        -9.1570
  43   0.0000      -0.336509        -9.1569
  44   0.0000      -0.311483        -8.4759
  45   0.0000      -0.237328        -6.4580
  46   0.0000      -0.222734        -6.0609

MULLIKEN ATOMIC CHARGES
-----------------------
   0 Ag:    0.399790
   1 Ag:    0.426361
   2 Ag:    0.425960
   3 Ag:    0.425945
   4 N :   -0.362276
   5 H :    0.227980
   6 H :    0.227979
   7 H :    0.228261
Sum of atomic charges:    2.0000000

LOEWDIN ATOMIC CHARGES
----------------------
   0 Ag:    0.416764
   1 Ag:    0.479322
   2 Ag:    0.479308
   3 Ag:    0.479308
   4 N :    0.393089
   5 H :   -0.082607
   6 H :   -0.082607
   7 H :   -0.082576

  Mayer bond orders larger than 0.100000
B(  0-Ag,  1-Ag) :   0.2470 B(  0-Ag,  2-Ag) :   0.2471 B(  0-Ag,  3-Ag) :   0.2472
B(  0-Ag,  4-N ) :   0.3831 B(  1-Ag,  2-Ag) :   0.3842 B(  1-Ag,  3-Ag) :   0.3842
B(  2-Ag,  3-Ag) :   0.3844 B(  4-N ,  5-H ) :   0.9884 B(  4-N ,  6-H ) :   0.9884
B(  4-N ,  7-H ) :   0.9881

MP2 TOTAL ENERGY:     -643.518337068 Eh
Dispersion correction           -0.023228720
FINAL SINGLE POINT ENERGY      -643.541565788225

DIPOLE MOMENT
-------------
                                X             Y             Z
Electronic contribution:      8.72153     -49.54128       0.00000
Nuclear contribution   :     -9.00166      51.14183       0.00000
                        -----------------------------------------
Total Dipole Moment    :     -0.28013       1.60056       0.00000
                        -----------------------------------------
Magnitude (a.u.)       :      1.62489
Magnitude (Debye)      :      4.13013

Rotational constants in cm-1:     0.020466     0.015199     0.015198
Rotational constants in MHz :   613.555994   455.656791   455.636329

                             ****ORCA TERMINATED NORMALLY****
TOTAL RUN TIME: 0 days 0 hours 0 minutes 15 seconds 894 msec
