                         Program Version 4.2.0 -  RELEASE  -
|  1> #
|  2> # Ag04C2_H_A ri-DSD-BLYP/2013-D3BJ/Def2-TZVPPD
|  3> #
|  4> ! rijk ri-dsd-blyp/2013 d3bj def2-tzvppd def2/jk def2-tzvppd/c grid4 nofinalgrid
|  5>
|  6> *xyz 2 2
|  7> Ag       0.000000    0.000000    1.733523
|  8> Ag       0.000000    1.616553   -0.602470
|  9> Ag      -1.399976   -0.808277   -0.602470
| 10> Ag       1.399976   -0.808277   -0.602470
| 11> H        0.000000    0.000000    3.472645
| 12> *
| 13>
| 14> %maxcore 5000
| 15>
| 16> %pal
| 17> nprocs = 24
| 18> end
| 19>
| 20>
| 21>                          ****END OF INPUT****

CARTESIAN COORDINATES (ANGSTROEM)
---------------------------------
  Ag     0.000000    0.000000    1.733523
  Ag     0.000000    1.616553   -0.602470
  Ag    -1.399976   -0.808277   -0.602470
  Ag     1.399976   -0.808277   -0.602470
  H      0.000000    0.000000    3.472645

 Total Charge           Charge          ....    2
 Multiplicity           Mult            ....    2
 Number of Electrons    NEL             ....   75
 Basis Dimension        Dim             ....  241

ORBITAL ENERGIES
----------------
                 SPIN UP ORBITALS
  NO   OCC          E(Eh)            E(eV)
   0   1.0000      -4.500893      -122.4755
   1   1.0000      -4.486486      -122.0835
   2   1.0000      -4.486174      -122.0750
   3   1.0000      -4.486173      -122.0750
   4   1.0000      -3.009962       -81.9052
   5   1.0000      -3.000264       -81.6413
   6   1.0000      -3.000264       -81.6413
   7   1.0000      -2.993173       -81.4484
   8   1.0000      -2.991179       -81.3941
   9   1.0000      -2.991178       -81.3941
  10   1.0000      -2.990023       -81.3627
  11   1.0000      -2.989801       -81.3566
  12   1.0000      -2.989799       -81.3566
  13   1.0000      -2.988892       -81.3319
  14   1.0000      -2.988790       -81.3291
  15   1.0000      -2.988790       -81.3291
  16   1.0000      -0.903359       -24.5816
  17   1.0000      -0.850678       -23.1481
  18   1.0000      -0.848088       -23.0776
  19   1.0000      -0.848081       -23.0775
  20   1.0000      -0.840500       -22.8712
  21   1.0000      -0.840497       -22.8711
  22   1.0000      -0.835498       -22.7350
  23   1.0000      -0.827811       -22.5259
  24   1.0000      -0.827808       -22.5258
  25   1.0000      -0.824661       -22.4402
  26   1.0000      -0.810553       -22.0563
  27   1.0000      -0.810551       -22.0562
  28   1.0000      -0.804915       -21.9029
  29   1.0000      -0.803423       -21.8622
  30   1.0000      -0.803418       -21.8621
  31   1.0000      -0.799826       -21.7644
  32   1.0000      -0.799818       -21.7642
  33   1.0000      -0.786015       -21.3885
  34   1.0000      -0.786013       -21.3885
  35   1.0000      -0.779657       -21.2155
  36   1.0000      -0.729455       -19.8495
  37   1.0000      -0.648426       -17.6446
  38   0.0000      -0.358629        -9.7588
  39   0.0000      -0.358628        -9.7588
  40   0.0000      -0.331496        -9.0205
  41   0.0000      -0.253490        -6.8978
  42   0.0000      -0.244784        -6.6609

                 SPIN DOWN ORBITALS
  NO   OCC          E(Eh)            E(eV)
   0   1.0000      -4.496639      -122.3598
   1   1.0000      -4.486406      -122.0813
   2   1.0000      -4.486095      -122.0729
   3   1.0000      -4.486094      -122.0728
   4   1.0000      -2.999940       -81.6325
   5   1.0000      -2.999940       -81.6325
   6   1.0000      -2.999259       -81.6140
   7   1.0000      -2.992795       -81.4381
   8   1.0000      -2.991189       -81.3944
   9   1.0000      -2.991188       -81.3944
  10   1.0000      -2.989988       -81.3617
  11   1.0000      -2.989928       -81.3601
  12   1.0000      -2.989926       -81.3600
  13   1.0000      -2.989038       -81.3359
  14   1.0000      -2.988660       -81.3256
  15   1.0000      -2.988660       -81.3256
  16   1.0000      -0.867324       -23.6011
  17   1.0000      -0.847170       -23.0527
  18   1.0000      -0.847163       -23.0525
  19   1.0000      -0.845292       -23.0016
  20   1.0000      -0.839774       -22.8514
  21   1.0000      -0.839771       -22.8513
  22   1.0000      -0.826294       -22.4846
  23   1.0000      -0.826291       -22.4845
  24   1.0000      -0.824376       -22.4324
  25   1.0000      -0.811053       -22.0699
  26   1.0000      -0.809094       -22.0166
  27   1.0000      -0.809092       -22.0165
  28   1.0000      -0.804825       -21.9004
  29   1.0000      -0.803321       -21.8595
  30   1.0000      -0.803316       -21.8593
  31   1.0000      -0.799653       -21.7597
  32   1.0000      -0.799645       -21.7594
  33   1.0000      -0.784975       -21.3603
  34   1.0000      -0.784973       -21.3602
  35   1.0000      -0.779966       -21.2240
  36   1.0000      -0.646454       -17.5909
  37   0.0000      -0.405466       -11.0333
  38   0.0000      -0.357512        -9.7284
  39   0.0000      -0.357511        -9.7284
  40   0.0000      -0.306377        -8.3369
  41   0.0000      -0.251258        -6.8371

MULLIKEN ATOMIC CHARGES AND SPIN POPULATIONS
--------------------------------------------
   0 Ag:    0.387085    0.164736
   1 Ag:    0.486150    0.023249
   2 Ag:    0.486131    0.023248
   3 Ag:    0.486140    0.023249
   4 H :    0.154494    0.765518
Sum of atomic charges         :    2.0000000

LOEWDIN ATOMIC CHARGES AND SPIN POPULATIONS
-------------------------------------------
   0 Ag:    0.407285    0.302048
   1 Ag:    0.498788    0.015191
   2 Ag:    0.498786    0.015191
   3 Ag:    0.498787    0.015191
   4 H :    0.096354    0.652380

  Mayer bond orders larger than 0.100000
B(  0-Ag,  1-Ag) :   0.2947 B(  0-Ag,  2-Ag) :   0.2947 B(  0-Ag,  3-Ag) :   0.2947
B(  0-Ag,  4-H ) :   0.4061 B(  1-Ag,  2-Ag) :   0.3292 B(  1-Ag,  3-Ag) :   0.3292
B(  2-Ag,  3-Ag) :   0.3292

MP2 TOTAL ENERGY:     -587.438196653 Eh
Dispersion correction           -0.020021506
FINAL SINGLE POINT ENERGY      -587.458218159467

DIPOLE MOMENT
-------------
                                X             Y             Z
Electronic contribution:      0.00000       0.00001      -5.23232
Nuclear contribution   :      0.00000       0.00000       5.41329
                        -----------------------------------------
Total Dipole Moment    :      0.00000       0.00001       0.18096
                        -----------------------------------------
Magnitude (a.u.)       :      0.18096
Magnitude (Debye)      :      0.45997

Rotational constants in cm-1:     0.019934     0.019231     0.019231
Rotational constants in MHz :   597.606998   576.544336   576.544235

                             ****ORCA TERMINATED NORMALLY****
TOTAL RUN TIME: 0 days 0 hours 0 minutes 16 seconds 481 msec
