                         Program Version 4.2.0 -  RELEASE  -
|  1> #
|  2> # Ag04C2 ri-DSD-BLYP/2013-D3BJ/Def2-TZVPPD
|  3> #
|  4> ! rijk ri-dsd-blyp/2013 d3bj def2-tzvppd def2/jk def2-tzvppd/c grid4 nofinalgrid
|  5>
|  6> *xyz 2 1
|  7> Ag      -0.000000   -0.000016    1.715553
|  8> Ag       0.000000   -1.617524   -0.571836
|  9> Ag       1.400774    0.808769   -0.571859
| 10> Ag      -1.400774    0.808770   -0.571858
| 11> *
| 12>
| 13> %maxcore 5000
| 14>
| 15> %pal
| 16> nprocs = 24
| 17> end
| 18>
| 19>
| 20>                          ****END OF INPUT****

CARTESIAN COORDINATES (ANGSTROEM)
---------------------------------
  Ag    -0.000000   -0.000016    1.715553
  Ag     0.000000   -1.617524   -0.571836
  Ag     1.400774    0.808769   -0.571859
  Ag    -1.400774    0.808770   -0.571858

 Total Charge           Charge          ....    2
 Multiplicity           Mult            ....    1
 Number of Electrons    NEL             ....   74
 Basis Dimension        Dim             ....  224

ORBITAL ENERGIES
----------------

  NO   OCC          E(Eh)            E(eV)
   0   2.0000      -4.489108      -122.1548
   1   2.0000      -4.488693      -122.1436
   2   2.0000      -4.488693      -122.1435
   3   2.0000      -4.488692      -122.1435
   4   2.0000      -2.996620       -81.5422
   5   2.0000      -2.994108       -81.4738
   6   2.0000      -2.994107       -81.4738
   7   2.0000      -2.994107       -81.4738
   8   2.0000      -2.993238       -81.4502
   9   2.0000      -2.993238       -81.4501
  10   2.0000      -2.991543       -81.4040
  11   2.0000      -2.991542       -81.4040
  12   2.0000      -2.991542       -81.4040
  13   2.0000      -2.991269       -81.3966
  14   2.0000      -2.991269       -81.3966
  15   2.0000      -2.991268       -81.3965
  16   2.0000      -0.868112       -23.6225
  17   2.0000      -0.846945       -23.0465
  18   2.0000      -0.846938       -23.0464
  19   2.0000      -0.846936       -23.0463
  20   2.0000      -0.841324       -22.8936
  21   2.0000      -0.841319       -22.8935
  22   2.0000      -0.827104       -22.5067
  23   2.0000      -0.827103       -22.5066
  24   2.0000      -0.827099       -22.5065
  25   2.0000      -0.807521       -21.9738
  26   2.0000      -0.807516       -21.9736
  27   2.0000      -0.807516       -21.9736
  28   2.0000      -0.804976       -21.9045
  29   2.0000      -0.804972       -21.9044
  30   2.0000      -0.802256       -21.8305
  31   2.0000      -0.802250       -21.8303
  32   2.0000      -0.802244       -21.8302
  33   2.0000      -0.782561       -21.2946
  34   2.0000      -0.782559       -21.2945
  35   2.0000      -0.782556       -21.2944
  36   2.0000      -0.651455       -17.7270
  37   0.0000      -0.359669        -9.7871
  38   0.0000      -0.359664        -9.7870
  39   0.0000      -0.359664        -9.7869
  40   0.0000      -0.260058        -7.0765
  41   0.0000      -0.243258        -6.6194

MULLIKEN ATOMIC CHARGES
-----------------------
   0 Ag:    0.499998
   1 Ag:    0.499997
   2 Ag:    0.500006
   3 Ag:    0.499999
Sum of atomic charges:    2.0000000

LOEWDIN ATOMIC CHARGES
----------------------
   0 Ag:    0.499991
   1 Ag:    0.500008
   2 Ag:    0.500001
   3 Ag:    0.500001

  Mayer bond orders larger than 0.100000
B(  0-Ag,  1-Ag) :   0.3142 B(  0-Ag,  2-Ag) :   0.3142 B(  0-Ag,  3-Ag) :   0.3142
B(  1-Ag,  2-Ag) :   0.3141 B(  1-Ag,  3-Ag) :   0.3141 B(  2-Ag,  3-Ag) :   0.3141

MP2 TOTAL ENERGY:     -586.921811602 Eh
Dispersion correction           -0.019623704
FINAL SINGLE POINT ENERGY      -586.941435305885

DIPOLE MOMENT
-------------
                                X             Y             Z
Electronic contribution:     -0.00000      -0.00002      -0.00004
Nuclear contribution   :      0.00000      -0.00000       0.00000
                        -----------------------------------------
Total Dipole Moment    :     -0.00000      -0.00002      -0.00004
                        -----------------------------------------
Magnitude (a.u.)       :      0.00005
Magnitude (Debye)      :      0.00012

Rotational constants in cm-1:     0.019912     0.019911     0.019911
Rotational constants in MHz :   596.940436   596.919431   596.905399

                             ****ORCA TERMINATED NORMALLY****
TOTAL RUN TIME: 0 days 0 hours 0 minutes 10 seconds 36 msec
