                         Program Version 4.2.0 -  RELEASE  -
|  1> #
|  2> # Ag04N0 ri-DSD-BLYP/2013-D3BJ/Def2-TZVPPD
|  3> #
|  4> ! rijk ri-dsd-blyp/2013 d3bj def2-tzvppd def2/jk def2-tzvppd/c grid4 nofinalgrid
|  5>
|  6> *xyz 0 1
|  7> Ag      -1.015022   -0.433109    0.700282
|  8> Ag       0.974659   -2.209777    0.043294
|  9> Ag       1.013798    0.433158   -0.699441
| 10> Ag      -0.973435    2.209727   -0.044135
| 11> *
| 12>
| 13> %maxcore 5000
| 14>
| 15> %pal
| 16> nprocs = 24
| 17> end
| 18>
| 19>
| 20>                          ****END OF INPUT****

CARTESIAN COORDINATES (ANGSTROEM)
---------------------------------
  Ag    -1.015022   -0.433109    0.700282
  Ag     0.974659   -2.209777    0.043294
  Ag     1.013798    0.433158   -0.699441
  Ag    -0.973435    2.209727   -0.044135

 Total Charge           Charge          ....    0
 Multiplicity           Mult            ....    1
 Number of Electrons    NEL             ....   76
 Basis Dimension        Dim             ....  224

ORBITAL ENERGIES
----------------

  NO   OCC          E(Eh)            E(eV)
   0   2.0000      -4.128593      -112.3447
   1   2.0000      -4.128066      -112.3304
   2   2.0000      -4.098954      -111.5382
   3   2.0000      -4.098906      -111.5369
   4   2.0000      -2.636760       -71.7499
   5   2.0000      -2.631168       -71.5977
   6   2.0000      -2.630881       -71.5899
   7   2.0000      -2.630524       -71.5802
   8   2.0000      -2.630440       -71.5779
   9   2.0000      -2.630374       -71.5761
  10   2.0000      -2.602237       -70.8105
  11   2.0000      -2.602058       -70.8056
  12   2.0000      -2.600668       -70.7678
  13   2.0000      -2.600577       -70.7653
  14   2.0000      -2.599403       -70.7333
  15   2.0000      -2.599357       -70.7321
  16   2.0000      -0.497435       -13.5359
  17   2.0000      -0.496073       -13.4988
  18   2.0000      -0.479754       -13.0548
  19   2.0000      -0.474237       -12.9046
  20   2.0000      -0.470211       -12.7951
  21   2.0000      -0.467928       -12.7330
  22   2.0000      -0.456326       -12.4172
  23   2.0000      -0.452649       -12.3172
  24   2.0000      -0.439621       -11.9627
  25   2.0000      -0.436216       -11.8700
  26   2.0000      -0.427260       -11.6263
  27   2.0000      -0.424315       -11.5462
  28   2.0000      -0.423955       -11.5364
  29   2.0000      -0.422813       -11.5053
  30   2.0000      -0.417921       -11.3722
  31   2.0000      -0.417110       -11.3502
  32   2.0000      -0.415456       -11.3051
  33   2.0000      -0.414813       -11.2876
  34   2.0000      -0.409666       -11.1476
  35   2.0000      -0.396657       -10.7936
  36   2.0000      -0.290277        -7.8989
  37   2.0000      -0.188004        -5.1158
  38   0.0000      -0.042675        -1.1613
  39   0.0000      -0.007393        -0.2012
  40   0.0000       0.004290         0.1167
  41   0.0000       0.033026         0.8987
  42   0.0000       0.036739         0.9997

MULLIKEN ATOMIC CHARGES
-----------------------
   0 Ag:    0.147790
   1 Ag:   -0.147694
   2 Ag:    0.147474
   3 Ag:   -0.147569
Sum of atomic charges:    0.0000000

LOEWDIN ATOMIC CHARGES
----------------------
   0 Ag:   -0.086517
   1 Ag:    0.086861
   2 Ag:   -0.087322
   3 Ag:    0.086978

  Mayer bond orders larger than 0.100000
B(  0-Ag,  1-Ag) :   0.5035 B(  0-Ag,  2-Ag) :   0.4109 B(  0-Ag,  3-Ag) :   0.5038
B(  1-Ag,  2-Ag) :   0.5040 B(  1-Ag,  3-Ag) :   0.1307 B(  2-Ag,  3-Ag) :   0.5040

MP2 TOTAL ENERGY:     -587.544097535 Eh
Dispersion correction           -0.017971541
FINAL SINGLE POINT ENERGY      -587.562069076056

DIPOLE MOMENT
-------------
                                X             Y             Z
Electronic contribution:     -0.00144       0.00025       0.00076
Nuclear contribution   :      0.00000       0.00000       0.00000
                        -----------------------------------------
Total Dipole Moment    :     -0.00144       0.00025       0.00076
                        -----------------------------------------
Magnitude (a.u.)       :      0.00165
Magnitude (Debye)      :      0.00418

Rotational constants in cm-1:     0.045790     0.013394     0.010363
Rotational constants in MHz :  1372.764620   401.554164   310.676613

                             ****ORCA TERMINATED NORMALLY****
TOTAL RUN TIME: 0 days 0 hours 0 minutes 10 seconds 386 msec
