                         Program Version 4.2.0 -  RELEASE  -
|  1> #
|  2> # Au01N0_H ri-DSD-BLYP/2013-D3BJ/Def2-TZVPPD
|  3> #
|  4> ! rijk ri-dsd-blyp/2013 d3bj def2-tzvppd def2/jk def2-tzvppd/c grid4 nofinalgrid
|  5>
|  6> *xyz 0 1
|  7> Au       0.000000    0.000000    0.019034
|  8> H        0.000000    0.000000   -1.503691
|  9> *
| 10>
| 11> %maxcore 5000
| 12>
| 13> %pal
| 14> nprocs = 24
| 15> end
| 16>
| 17>
| 18>                          ****END OF INPUT****

CARTESIAN COORDINATES (ANGSTROEM)
---------------------------------
  Au     0.000000    0.000000    0.019034
  H      0.000000    0.000000   -1.503691

 Total Charge           Charge          ....    0
 Multiplicity           Mult            ....    1
 Number of Electrons    NEL             ....   20
 Basis Dimension        Dim             ....   76

ORBITAL ENERGIES
----------------

  NO   OCC          E(Eh)            E(eV)
   0   2.0000      -4.524509      -123.1182
   1   2.0000      -2.619780       -71.2878
   2   2.0000      -2.603489       -70.8445
   3   2.0000      -2.603489       -70.8445
   4   2.0000      -0.513982       -13.9862
   5   2.0000      -0.432123       -11.7587
   6   2.0000      -0.432123       -11.7587
   7   2.0000      -0.414348       -11.2750
   8   2.0000      -0.414348       -11.2750
   9   2.0000      -0.323712        -8.8086
  10   0.0000      -0.025210        -0.6860
  11   0.0000       0.038282         1.0417
  12   0.0000       0.038282         1.0417
  13   0.0000       0.115381         3.1397
  14   0.0000       0.150931         4.1071

MULLIKEN ATOMIC CHARGES
-----------------------
   0 Au:   -0.010398
   1 H :    0.010398
Sum of atomic charges:    0.0000000

LOEWDIN ATOMIC CHARGES
----------------------
   0 Au:    0.365501
   1 H :   -0.365501

  Mayer bond orders larger than 0.100000
B(  0-Au,  1-H ) :   1.1213

MP2 TOTAL ENERGY:     -136.115064965 Eh
Dispersion correction           -0.000698080
FINAL SINGLE POINT ENERGY      -136.115763044429

DIPOLE MOMENT
-------------
                                X             Y             Z
Electronic contribution:      0.00000       0.00000       3.40221
Nuclear contribution   :      0.00000       0.00000      -2.58451
                        -----------------------------------------
Total Dipole Moment    :      0.00000       0.00000       0.81770
                        -----------------------------------------
Magnitude (a.u.)       :      0.81770
Magnitude (Debye)      :      2.07842

Rotational constants in cm-1:     0.000000     7.249537     7.249537
Rotational constants in MHz :     0.000000 217335.666254 217335.666254

                             ****ORCA TERMINATED NORMALLY****
TOTAL RUN TIME: 0 days 0 hours 0 minutes 4 seconds 462 msec
