                         Program Version 4.2.0 -  RELEASE  -
|  1> #
|  2> # Au01N0 ri-DSD-BLYP/2013-D3BJ/Def2-TZVPPD
|  3> #
|  4> ! rijk ri-dsd-blyp/2013 d3bj def2-tzvppd def2/jk def2-tzvppd/c grid4 nofinalgrid
|  5>
|  6> *xyz 0 2
|  7> Au       0.000000    0.000000    0.000000
|  8> *
|  9>
| 10> %maxcore 5000
| 11>
| 12> %pal
| 13> nprocs = 24
| 14> end
| 15>
| 16>
| 17>                          ****END OF INPUT****

CARTESIAN COORDINATES (ANGSTROEM)
---------------------------------
  Au     0.000000    0.000000    0.000000

 Total Charge           Charge          ....    0
 Multiplicity           Mult            ....    2
 Number of Electrons    NEL             ....   19
 Basis Dimension        Dim             ....   59

ORBITAL ENERGIES
----------------
                 SPIN UP ORBITALS
  NO   OCC          E(Eh)            E(eV)
   0   1.0000      -4.492934      -122.2590
   1   1.0000      -2.579015       -70.1786
   2   1.0000      -2.579015       -70.1786
   3   1.0000      -2.579015       -70.1786
   4   1.0000      -0.404342       -11.0027
   5   1.0000      -0.404342       -11.0027
   6   1.0000      -0.404342       -11.0027
   7   1.0000      -0.404342       -11.0027
   8   1.0000      -0.404342       -11.0027
   9   1.0000      -0.276594        -7.5265
  10   0.0000       0.030415         0.8276
  11   0.0000       0.030415         0.8276
  12   0.0000       0.030415         0.8276
  13   0.0000       0.199892         5.4393
  14   0.0000       0.253861         6.9079

                 SPIN DOWN ORBITALS
  NO   OCC          E(Eh)            E(eV)
   0   1.0000      -4.489783      -122.1732
   1   1.0000      -2.579539       -70.1928
   2   1.0000      -2.579539       -70.1928
   3   1.0000      -2.579539       -70.1928
   4   1.0000      -0.395078       -10.7506
   5   1.0000      -0.395078       -10.7506
   6   1.0000      -0.395078       -10.7506
   7   1.0000      -0.395078       -10.7506
   8   1.0000      -0.395078       -10.7506
   9   0.0000      -0.064739        -1.7616
  10   0.0000       0.051764         1.4086
  11   0.0000       0.051764         1.4086
  12   0.0000       0.051764         1.4086
  13   0.0000       0.226167         6.1543

MULLIKEN ATOMIC CHARGES AND SPIN POPULATIONS
--------------------------------------------
   0 Au:   -0.000000    1.000000
Sum of atomic charges         :   -0.0000000

LOEWDIN ATOMIC CHARGES AND SPIN POPULATIONS
-------------------------------------------
   0 Au:    0.000000    1.000000

MP2 TOTAL ENERGY:     -135.503089879 Eh
Dispersion correction            0.000000000
FINAL SINGLE POINT ENERGY      -135.503089879104

DIPOLE MOMENT
-------------
                                X             Y             Z
Electronic contribution:      0.00000      -0.00000      -0.00000
Nuclear contribution   :      0.00000       0.00000       0.00000
                        -----------------------------------------
Total Dipole Moment    :      0.00000      -0.00000      -0.00000
                        -----------------------------------------
Magnitude (a.u.)       :      0.00000
Magnitude (Debye)      :      0.00000

Rotational constants in cm-1:     0.000000     0.000000     0.000000
Rotational constants in MHz :     0.000000     0.000000     0.000000

                             ****ORCA TERMINATED NORMALLY****
TOTAL RUN TIME: 0 days 0 hours 0 minutes 5 seconds 683 msec
