                         Program Version 4.2.0 -  RELEASE  -
|  1> #
|  2> # Au01N0_F ri-DSD-BLYP/2013-D3BJ/Def2-TZVPPD
|  3> #
|  4> ! rijk ri-dsd-blyp/2013 d3bj def2-tzvppd def2/jk def2-tzvppd/c grid4 nofinalgrid
|  5>
|  6> *xyz 0 1
|  7> Au       0.000000    0.000000    0.196853
|  8> F        0.000000    0.000000   -1.727931
|  9> *
| 10>
| 11> %maxcore 5000
| 12>
| 13> %pal
| 14> nprocs = 24
| 15> end
| 16>
| 17>
| 18>                          ****END OF INPUT****

CARTESIAN COORDINATES (ANGSTROEM)
---------------------------------
  Au     0.000000    0.000000    0.196853
  F      0.000000    0.000000   -1.727931

 Total Charge           Charge          ....    0
 Multiplicity           Mult            ....    1
 Number of Electrons    NEL             ....   28
 Basis Dimension        Dim             ....   99

ORBITAL ENERGIES
----------------

  NO   OCC          E(Eh)            E(eV)
   0   2.0000     -25.626867      -697.3425
   1   2.0000      -4.546414      -123.7142
   2   2.0000      -2.640993       -71.8651
   3   2.0000      -2.630086       -71.5683
   4   2.0000      -2.630086       -71.5683
   5   2.0000      -1.319921       -35.9169
   6   2.0000      -0.544656       -14.8208
   7   2.0000      -0.517250       -14.0751
   8   2.0000      -0.517250       -14.0751
   9   2.0000      -0.443511       -12.0686
  10   2.0000      -0.443511       -12.0685
  11   2.0000      -0.412625       -11.2281
  12   2.0000      -0.412625       -11.2281
  13   2.0000      -0.376007       -10.2317
  14   0.0000      -0.072184        -1.9642
  15   0.0000       0.039265         1.0685
  16   0.0000       0.039265         1.0685
  17   0.0000       0.076658         2.0860
  18   0.0000       0.140857         3.8329

MULLIKEN ATOMIC CHARGES
-----------------------
   0 Au:    0.588151
   1 F :   -0.588151
Sum of atomic charges:   -0.0000000

LOEWDIN ATOMIC CHARGES
----------------------
   0 Au:    0.673211
   1 F :   -0.673211

  Mayer bond orders larger than 0.100000
B(  0-Au,  1-F ) :   0.6774

MP2 TOTAL ENERGY:     -235.298403358 Eh
Dispersion correction           -0.000907299
FINAL SINGLE POINT ENERGY      -235.299310657177

DIPOLE MOMENT
-------------
                                X             Y             Z
Electronic contribution:     -0.00000      -0.00000      25.79455
Nuclear contribution   :      0.00000       0.00000     -23.77673
                        -----------------------------------------
Total Dipole Moment    :     -0.00000      -0.00000       2.01782
                        -----------------------------------------
Magnitude (a.u.)       :      2.01782
Magnitude (Debye)      :      5.12888

Rotational constants in cm-1:     0.000000     0.262612     0.262612
Rotational constants in MHz :     0.000000  7872.917876  7872.917876

                             ****ORCA TERMINATED NORMALLY****
TOTAL RUN TIME: 0 days 0 hours 0 minutes 4 seconds 853 msec
