                         Program Version 4.2.0 -  RELEASE  -
|  1> #
|  2> # Au02N0 ri-DSD-BLYP/2013-D3BJ/Def2-TZVPPD
|  3> #
|  4> ! rijk ri-dsd-blyp/2013 d3bj def2-tzvppd def2/jk def2-tzvppd/c grid4 nofinalgrid
|  5>
|  6> *xyz 0 1
|  7> Au       0.000000    0.000000    1.239541
|  8> Au       0.000000    0.000000   -1.239541
|  9> *
| 10>
| 11> %maxcore 5000
| 12>
| 13> %pal
| 14> nprocs = 24
| 15> end
| 16>
| 17>
| 18>                          ****END OF INPUT****

CARTESIAN COORDINATES (ANGSTROEM)
---------------------------------
  Au     0.000000    0.000000    1.239541
  Au     0.000000    0.000000   -1.239541

 Total Charge           Charge          ....    0
 Multiplicity           Mult            ....    1
 Number of Electrons    NEL             ....   38
 Basis Dimension        Dim             ....  118

ORBITAL ENERGIES
----------------

  NO   OCC          E(Eh)            E(eV)
   0   2.0000      -4.492659      -122.2515
   1   2.0000      -4.491718      -122.2259
   2   2.0000      -2.592046       -70.5332
   3   2.0000      -2.577105       -70.1266
   4   2.0000      -2.577105       -70.1266
   5   2.0000      -2.575919       -70.0943
   6   2.0000      -2.575734       -70.0893
   7   2.0000      -2.575734       -70.0893
   8   2.0000      -0.465098       -12.6560
   9   2.0000      -0.438007       -11.9188
  10   2.0000      -0.438007       -11.9188
  11   2.0000      -0.400325       -10.8934
  12   2.0000      -0.400322       -10.8933
  13   2.0000      -0.386126       -10.5070
  14   2.0000      -0.386122       -10.5069
  15   2.0000      -0.365883        -9.9562
  16   2.0000      -0.365883        -9.9562
  17   2.0000      -0.354136        -9.6365
  18   2.0000      -0.285301        -7.7634
  19   0.0000      -0.052923        -1.4401
  20   0.0000       0.026608         0.7240
  21   0.0000       0.026608         0.7240
  22   0.0000       0.048442         1.3182
  23   0.0000       0.090295         2.4571

MULLIKEN ATOMIC CHARGES
-----------------------
   0 Au:   -0.000001
   1 Au:    0.000001
Sum of atomic charges:    0.0000000

LOEWDIN ATOMIC CHARGES
----------------------
   0 Au:   -0.000000
   1 Au:    0.000000

  Mayer bond orders larger than 0.100000
B(  0-Au,  1-Au) :   1.0997

MP2 TOTAL ENERGY:     -271.086437914 Eh
Dispersion correction           -0.005120407
FINAL SINGLE POINT ENERGY      -271.091558321745

DIPOLE MOMENT
-------------
                                X             Y             Z
Electronic contribution:      0.00000      -0.00000       0.00000
Nuclear contribution   :      0.00000       0.00000       0.00000
                        -----------------------------------------
Total Dipole Moment    :      0.00000      -0.00000       0.00000
                        -----------------------------------------
Magnitude (a.u.)       :      0.00000
Magnitude (Debye)      :      0.00000

Rotational constants in cm-1:     0.000000     0.027852     0.027852
Rotational constants in MHz :     0.000000   834.974952   834.974952

                             ****ORCA TERMINATED NORMALLY****
TOTAL RUN TIME: 0 days 0 hours 0 minutes 5 seconds 310 msec
