                         Program Version 4.2.0 -  RELEASE  -
|  1> #
|  2> # Au03N0_LIN ri-DSD-BLYP/2013-D3BJ/Def2-TZVPPD
|  3> #
|  4> ! rijk ri-dsd-blyp/2013 d3bj def2-tzvppd def2/jk def2-tzvppd/c grid4 nofinalgrid
|  5>
|  6> *xyz 0 2
|  7> Au       0.000000    0.000000    0.000000
|  8> Au       0.000000    0.000000    2.547414
|  9> Au       0.000000    0.000000   -2.547414
| 10> *
| 11>
| 12> %maxcore 5000
| 13>
| 14> %pal
| 15> nprocs = 24
| 16> end
| 17>
| 18>
| 19>                          ****END OF INPUT****

CARTESIAN COORDINATES (ANGSTROEM)
---------------------------------
  Au     0.000000    0.000000    0.000000
  Au     0.000000    0.000000    2.547414
  Au     0.000000    0.000000   -2.547414

 Total Charge           Charge          ....    0
 Multiplicity           Mult            ....    2
 Number of Electrons    NEL             ....   57
 Basis Dimension        Dim             ....  177

ORBITAL ENERGIES
----------------
                 SPIN UP ORBITALS
  NO   OCC          E(Eh)            E(eV)
   0   1.0000      -4.503604      -122.5493
   1   1.0000      -4.503593      -122.5490
   2   1.0000      -4.485943      -122.0687
   3   1.0000      -2.597052       -70.6694
   4   1.0000      -2.592836       -70.5546
   5   1.0000      -2.588067       -70.4249
   6   1.0000      -2.588067       -70.4249
   7   1.0000      -2.588048       -70.4244
   8   1.0000      -2.588048       -70.4244
   9   1.0000      -2.573769       -70.0358
  10   1.0000      -2.568671       -69.8971
  11   1.0000      -2.568671       -69.8971
  12   1.0000      -0.490945       -13.3593
  13   1.0000      -0.450982       -12.2718
  14   1.0000      -0.450982       -12.2718
  15   1.0000      -0.417945       -11.3729
  16   1.0000      -0.417945       -11.3729
  17   1.0000      -0.417215       -11.3530
  18   1.0000      -0.411861       -11.2073
  19   1.0000      -0.411857       -11.2072
  20   1.0000      -0.409211       -11.1352
  21   1.0000      -0.409207       -11.1351
  22   1.0000      -0.381623       -10.3845
  23   1.0000      -0.381618       -10.3843
  24   1.0000      -0.356864        -9.7108
  25   1.0000      -0.356864        -9.7108
  26   1.0000      -0.348513        -9.4835
  27   1.0000      -0.312718        -8.5095
  28   1.0000      -0.272285        -7.4092
  29   0.0000      -0.037315        -1.0154
  30   0.0000       0.012189         0.3317
  31   0.0000       0.012189         0.3317
  32   0.0000       0.036581         0.9954
  33   0.0000       0.048947         1.3319

                 SPIN DOWN ORBITALS
  NO   OCC          E(Eh)            E(eV)
   0   1.0000      -4.502122      -122.5090
   1   1.0000      -4.502108      -122.5086
   2   1.0000      -4.487536      -122.1121
   3   1.0000      -2.598561       -70.7104
   4   1.0000      -2.594630       -70.6035
   5   1.0000      -2.588724       -70.4428
   6   1.0000      -2.588724       -70.4428
   7   1.0000      -2.588668       -70.4412
   8   1.0000      -2.588668       -70.4412
   9   1.0000      -2.575610       -70.0859
  10   1.0000      -2.570289       -69.9411
  11   1.0000      -2.570289       -69.9411
  12   1.0000      -0.487374       -13.2621
  13   1.0000      -0.447022       -12.1641
  14   1.0000      -0.447022       -12.1641
  15   1.0000      -0.415677       -11.3111
  16   1.0000      -0.412434       -11.2229
  17   1.0000      -0.412434       -11.2229
  18   1.0000      -0.406398       -11.0587
  19   1.0000      -0.406394       -11.0585
  20   1.0000      -0.403015       -10.9666
  21   1.0000      -0.403011       -10.9665
  22   1.0000      -0.382319       -10.4034
  23   1.0000      -0.382314       -10.4033
  24   1.0000      -0.357379        -9.7248
  25   1.0000      -0.357379        -9.7248
  26   1.0000      -0.342688        -9.3250
  27   1.0000      -0.276810        -7.5324
  28   0.0000      -0.108422        -2.9503
  29   0.0000      -0.015691        -0.4270
  30   0.0000       0.020963         0.5704
  31   0.0000       0.020963         0.5704
  32   0.0000       0.049206         1.3390

MULLIKEN ATOMIC CHARGES AND SPIN POPULATIONS
--------------------------------------------
   0 Au:   -0.104077   -0.154054
   1 Au:    0.052036    0.577030
   2 Au:    0.052041    0.577024
Sum of atomic charges         :   -0.0000000

LOEWDIN ATOMIC CHARGES AND SPIN POPULATIONS
-------------------------------------------
   0 Au:   -0.200346    0.274468
   1 Au:    0.100173    0.362766
   2 Au:    0.100173    0.362766

  Mayer bond orders larger than 0.100000
B(  0-Au,  1-Au) :   0.6443 B(  0-Au,  2-Au) :   0.6443 B(  1-Au,  2-Au) :   0.1412

MP2 TOTAL ENERGY:     -406.624990598 Eh
Dispersion correction           -0.009939126
FINAL SINGLE POINT ENERGY      -406.634929724374

DIPOLE MOMENT
-------------
                                X             Y             Z
Electronic contribution:     -0.00000      -0.00000       0.00000
Nuclear contribution   :      0.00000       0.00000       0.00000
                        -----------------------------------------
Total Dipole Moment    :     -0.00000      -0.00000       0.00000
                        -----------------------------------------
Magnitude (a.u.)       :      0.00000
Magnitude (Debye)      :      0.00000

Rotational constants in cm-1:     0.000000     0.006594     0.006594
Rotational constants in MHz :     0.000000   197.695224   197.695224

                             ****ORCA TERMINATED NORMALLY****
TOTAL RUN TIME: 0 days 0 hours 0 minutes 9 seconds 668 msec
