                         Program Version 4.2.0 -  RELEASE  -
|  1> #
|  2> # Au03C1_LIN ri-DSD-BLYP/2013-D3BJ/Def2-TZVPPD
|  3> #
|  4> ! rijk ri-dsd-blyp/2013 d3bj def2-tzvppd def2/jk def2-tzvppd/c grid4 nofinalgrid
|  5>
|  6> *xyz 1 1
|  7> Au       0.000000    0.000000    0.000000
|  8> Au       0.000000    0.000000    2.576864
|  9> Au       0.000000    0.000000   -2.576864
| 10> *
| 11>
| 12> %maxcore 5000
| 13>
| 14> %pal
| 15> nprocs = 24
| 16> end
| 17>
| 18>
| 19>                          ****END OF INPUT****

CARTESIAN COORDINATES (ANGSTROEM)
---------------------------------
  Au     0.000000    0.000000    0.000000
  Au     0.000000    0.000000    2.576864
  Au     0.000000    0.000000   -2.576864

 Total Charge           Charge          ....    1
 Multiplicity           Mult            ....    1
 Number of Electrons    NEL             ....   56
 Basis Dimension        Dim             ....  177

ORBITAL ENERGIES
----------------

  NO   OCC          E(Eh)            E(eV)
   0   2.0000      -4.706718      -128.0763
   1   2.0000      -4.706715      -128.0762
   2   2.0000      -4.660944      -126.8307
   3   2.0000      -2.800898       -76.2163
   4   2.0000      -2.799605       -76.1811
   5   2.0000      -2.795304       -76.0641
   6   2.0000      -2.795304       -76.0641
   7   2.0000      -2.795264       -76.0630
   8   2.0000      -2.795264       -76.0630
   9   2.0000      -2.753675       -74.9313
  10   2.0000      -2.743197       -74.6462
  11   2.0000      -2.743197       -74.6462
  12   2.0000      -0.680343       -18.5131
  13   2.0000      -0.641627       -17.4596
  14   2.0000      -0.641627       -17.4596
  15   2.0000      -0.622104       -16.9283
  16   2.0000      -0.619776       -16.8650
  17   2.0000      -0.619776       -16.8650
  18   2.0000      -0.613206       -16.6862
  19   2.0000      -0.613201       -16.6861
  20   2.0000      -0.612218       -16.6593
  21   2.0000      -0.612214       -16.6592
  22   2.0000      -0.556891       -15.1538
  23   2.0000      -0.556885       -15.1536
  24   2.0000      -0.546822       -14.8798
  25   2.0000      -0.546822       -14.8798
  26   2.0000      -0.533791       -14.5252
  27   2.0000      -0.458039       -12.4639
  28   0.0000      -0.302165        -8.2223
  29   0.0000      -0.184660        -5.0248
  30   0.0000      -0.133678        -3.6376
  31   0.0000      -0.133678        -3.6376
  32   0.0000      -0.100104        -2.7240

MULLIKEN ATOMIC CHARGES
-----------------------
   0 Au:   -0.069412
   1 Au:    0.534707
   2 Au:    0.534705
Sum of atomic charges:    1.0000000

LOEWDIN ATOMIC CHARGES
----------------------
   0 Au:    0.117472
   1 Au:    0.441264
   2 Au:    0.441264

  Mayer bond orders larger than 0.100000
B(  0-Au,  1-Au) :   0.5963 B(  0-Au,  2-Au) :   0.5963 B(  1-Au,  2-Au) :   0.2613

MP2 TOTAL ENERGY:     -406.311812371 Eh
Dispersion correction           -0.009699274
FINAL SINGLE POINT ENERGY      -406.321511645513

DIPOLE MOMENT
-------------
                                X             Y             Z
Electronic contribution:     -0.00000       0.00000      -0.00000
Nuclear contribution   :      0.00000       0.00000       0.00000
                        -----------------------------------------
Total Dipole Moment    :     -0.00000       0.00000      -0.00000
                        -----------------------------------------
Magnitude (a.u.)       :      0.00000
Magnitude (Debye)      :      0.00000

Rotational constants in cm-1:     0.000000     0.006445     0.006445
Rotational constants in MHz :     0.000000   193.202279   193.202279

                             ****ORCA TERMINATED NORMALLY****
TOTAL RUN TIME: 0 days 0 hours 0 minutes 7 seconds 686 msec
