                         Program Version 4.2.0 -  RELEASE  -
|  1> #
|  2> # Au03C1_D3H ri-DSD-BLYP/2013-D3BJ/Def2-TZVPPD
|  3> #
|  4> ! rijk ri-dsd-blyp/2013 d3bj def2-tzvppd def2/jk def2-tzvppd/c grid4 nofinalgrid
|  5>
|  6> *xyz 1 1
|  7> Au       0.000000    1.501400   -0.000000
|  8> Au       1.300251   -0.750700   -0.000000
|  9> Au      -1.300251   -0.750700   -0.000000
| 10> *
| 11>
| 12> %maxcore 5000
| 13>
| 14> %pal
| 15> nprocs = 24
| 16> end
| 17>
| 18>
| 19>                          ****END OF INPUT****

CARTESIAN COORDINATES (ANGSTROEM)
---------------------------------
  Au     0.000000    1.501400   -0.000000
  Au     1.300251   -0.750700   -0.000000
  Au    -1.300251   -0.750700   -0.000000

 Total Charge           Charge          ....    1
 Multiplicity           Mult            ....    1
 Number of Electrons    NEL             ....   56
 Basis Dimension        Dim             ....  177

ORBITAL ENERGIES
----------------

  NO   OCC          E(Eh)            E(eV)
   0   2.0000      -4.702580      -127.9637
   1   2.0000      -4.701846      -127.9437
   2   2.0000      -4.701846      -127.9437
   3   2.0000      -2.801648       -76.2367
   4   2.0000      -2.794191       -76.0338
   5   2.0000      -2.794189       -76.0337
   6   2.0000      -2.787183       -75.8431
   7   2.0000      -2.786887       -75.8350
   8   2.0000      -2.786881       -75.8349
   9   2.0000      -2.786444       -75.8230
  10   2.0000      -2.785958       -75.8098
  11   2.0000      -2.785957       -75.8097
  12   2.0000      -0.694456       -18.8971
  13   2.0000      -0.662140       -18.0177
  14   2.0000      -0.662139       -18.0177
  15   2.0000      -0.655942       -17.8491
  16   2.0000      -0.629395       -17.1267
  17   2.0000      -0.623702       -16.9718
  18   2.0000      -0.623700       -16.9717
  19   2.0000      -0.588908       -16.0250
  20   2.0000      -0.588907       -16.0250
  21   2.0000      -0.582490       -15.8503
  22   2.0000      -0.578523       -15.7424
  23   2.0000      -0.578522       -15.7424
  24   2.0000      -0.578420       -15.7396
  25   2.0000      -0.578416       -15.7395
  26   2.0000      -0.539190       -14.6721
  27   2.0000      -0.516516       -14.0551
  28   0.0000      -0.230775        -6.2797
  29   0.0000      -0.230775        -6.2797
  30   0.0000      -0.149182        -4.0595
  31   0.0000      -0.116246        -3.1632
  32   0.0000      -0.100070        -2.7230

MULLIKEN ATOMIC CHARGES
-----------------------
   0 Au:    0.333315
   1 Au:    0.333341
   2 Au:    0.333343
Sum of atomic charges:    1.0000000

LOEWDIN ATOMIC CHARGES
----------------------
   0 Au:    0.333329
   1 Au:    0.333335
   2 Au:    0.333336

  Mayer bond orders larger than 0.100000
B(  0-Au,  1-Au) :   0.5805 B(  0-Au,  2-Au) :   0.5805 B(  1-Au,  2-Au) :   0.5805

MP2 TOTAL ENERGY:     -406.379620139 Eh
Dispersion correction           -0.013949294
FINAL SINGLE POINT ENERGY      -406.393569432428

DIPOLE MOMENT
-------------
                                X             Y             Z
Electronic contribution:      0.00000      -0.00001       0.00000
Nuclear contribution   :      0.00000       0.00000      -0.00000
                        -----------------------------------------
Total Dipole Moment    :      0.00000      -0.00001       0.00000
                        -----------------------------------------
Magnitude (a.u.)       :      0.00001
Magnitude (Debye)      :      0.00004

Rotational constants in cm-1:     0.025312     0.025312     0.012656
Rotational constants in MHz :   758.824167   758.823632   379.411950

                             ****ORCA TERMINATED NORMALLY****
TOTAL RUN TIME: 0 days 0 hours 0 minutes 8 seconds 641 msec
