                         Program Version 4.2.0 -  RELEASE  -
|  1> #
|  2> # Au03N0_D3H ri-DSD-BLYP/2013-D3BJ/Def2-TZVPPD
|  3> #
|  4> ! rijk ri-dsd-blyp/2013 d3bj def2-tzvppd def2/jk def2-tzvppd/c grid4 nofinalgrid
|  5>
|  6> *xyz 0 2
|  7> Au       0.000000    1.515176   -0.000000
|  8> Au       1.312181   -0.757588    0.000000
|  9> Au      -1.312181   -0.757588   -0.000000
| 10> *
| 11>
| 12> %maxcore 5000
| 13>
| 14> %pal
| 15> nprocs = 24
| 16> end
| 17>
| 18>
| 19>                          ****END OF INPUT****

CARTESIAN COORDINATES (ANGSTROEM)
---------------------------------
  Au     0.000000    1.515176   -0.000000
  Au     1.312181   -0.757588    0.000000
  Au    -1.312181   -0.757588   -0.000000

 Total Charge           Charge          ....    0
 Multiplicity           Mult            ....    2
 Number of Electrons    NEL             ....   57
 Basis Dimension        Dim             ....  177

ORBITAL ENERGIES
----------------
                 SPIN UP ORBITALS
  NO   OCC          E(Eh)            E(eV)
   0   1.0000      -4.514042      -122.8333
   1   1.0000      -4.513598      -122.8212
   2   1.0000      -4.492033      -122.2344
   3   1.0000      -2.609271       -71.0019
   4   1.0000      -2.602089       -70.8065
   5   1.0000      -2.601333       -70.7859
   6   1.0000      -2.598285       -70.7029
   7   1.0000      -2.597520       -70.6821
   8   1.0000      -2.597453       -70.6803
   9   1.0000      -2.579578       -70.1939
  10   1.0000      -2.576248       -70.1033
  11   1.0000      -2.572674       -70.0060
  12   1.0000      -0.498365       -13.5612
  13   1.0000      -0.469089       -12.7646
  14   1.0000      -0.461135       -12.5481
  15   1.0000      -0.459519       -12.5041
  16   1.0000      -0.435678       -11.8554
  17   1.0000      -0.432338       -11.7645
  18   1.0000      -0.425317       -11.5735
  19   1.0000      -0.400253       -10.8914
  20   1.0000      -0.393184       -10.6991
  21   1.0000      -0.390983       -10.6392
  22   1.0000      -0.384191       -10.4544
  23   1.0000      -0.380120       -10.3436
  24   1.0000      -0.378299       -10.2940
  25   1.0000      -0.376864       -10.2550
  26   1.0000      -0.348332        -9.4786
  27   1.0000      -0.340923        -9.2770
  28   1.0000      -0.200957        -5.4683
  29   0.0000      -0.073983        -2.0132
  30   0.0000       0.005651         0.1538
  31   0.0000       0.022704         0.6178
  32   0.0000       0.043133         1.1737
  33   0.0000       0.044781         1.2185

                 SPIN DOWN ORBITALS
  NO   OCC          E(Eh)            E(eV)
   0   1.0000      -4.513301      -122.8132
   1   1.0000      -4.512869      -122.8014
   2   1.0000      -4.487438      -122.1094
   3   1.0000      -2.609076       -70.9966
   4   1.0000      -2.600627       -70.7667
   5   1.0000      -2.600210       -70.7553
   6   1.0000      -2.598194       -70.7004
   7   1.0000      -2.598034       -70.6961
   8   1.0000      -2.597456       -70.6804
   9   1.0000      -2.574314       -70.0506
  10   1.0000      -2.573104       -70.0177
  11   1.0000      -2.571050       -69.9618
  12   1.0000      -0.493434       -13.4270
  13   1.0000      -0.468148       -12.7389
  14   1.0000      -0.458888       -12.4870
  15   1.0000      -0.452203       -12.3051
  16   1.0000      -0.431962       -11.7543
  17   1.0000      -0.431051       -11.7295
  18   1.0000      -0.422998       -11.5104
  19   1.0000      -0.400014       -10.8849
  20   1.0000      -0.394475       -10.7342
  21   1.0000      -0.390376       -10.6227
  22   1.0000      -0.379844       -10.3361
  23   1.0000      -0.375952       -10.2302
  24   1.0000      -0.369592       -10.0571
  25   1.0000      -0.368288       -10.0216
  26   1.0000      -0.337219        -9.1762
  27   1.0000      -0.325461        -8.8562
  28   0.0000      -0.064560        -1.7568
  29   0.0000      -0.037395        -1.0176
  30   0.0000       0.011603         0.3157
  31   0.0000       0.035809         0.9744
  32   0.0000       0.060925         1.6579

MULLIKEN ATOMIC CHARGES AND SPIN POPULATIONS
--------------------------------------------
   0 Au:   -0.149648    0.646925
   1 Au:    0.074819    0.176551
   2 Au:    0.074829    0.176524
Sum of atomic charges         :   -0.0000000

LOEWDIN ATOMIC CHARGES AND SPIN POPULATIONS
-------------------------------------------
   0 Au:   -0.103351    0.528722
   1 Au:    0.051672    0.235646
   2 Au:    0.051679    0.235631

  Mayer bond orders larger than 0.100000
B(  0-Au,  1-Au) :   0.5233 B(  0-Au,  2-Au) :   0.5233 B(  1-Au,  2-Au) :   0.7646

MP2 TOTAL ENERGY:     -406.626681474 Eh
Dispersion correction           -0.013670341
FINAL SINGLE POINT ENERGY      -406.640351815152

DIPOLE MOMENT
-------------
                                X             Y             Z
Electronic contribution:     -0.00003      -0.64063      -0.00000
Nuclear contribution   :      0.00000       0.00000       0.00000
                        -----------------------------------------
Total Dipole Moment    :     -0.00003      -0.64063      -0.00000
                        -----------------------------------------
Magnitude (a.u.)       :      0.64063
Magnitude (Debye)      :      1.62836

Rotational constants in cm-1:     0.024853     0.024853     0.012427
Rotational constants in MHz :   745.088417   745.088311   372.544182

                             ****ORCA TERMINATED NORMALLY****
TOTAL RUN TIME: 0 days 0 hours 0 minutes 10 seconds 797 msec
