                         Program Version 4.2.0 -  RELEASE  -
|  1> #
|  2> # Au04C2 ri-DSD-BLYP/2013-D3BJ/Def2-TZVPPD
|  3> #
|  4> ! rijk ri-dsd-blyp/2013 d3bj def2-tzvppd def2/jk def2-tzvppd/c grid4 nofinalgrid
|  5>
|  6> *xyz 2 1
|  7> Au      -0.000000   -0.000044    1.659420
|  8> Au      -1.354966    0.782292   -0.553161
|  9> Au       1.354966    0.782292   -0.553161
| 10> Au       0.000000   -1.564540   -0.553099
| 11> *
| 12>
| 13> %maxcore 5000
| 14>
| 15> %pal
| 16> nprocs = 24
| 17> end
| 18>
| 19>
| 20>                          ****END OF INPUT****

CARTESIAN COORDINATES (ANGSTROEM)
---------------------------------
  Au    -0.000000   -0.000044    1.659420
  Au    -1.354966    0.782292   -0.553161
  Au     1.354966    0.782292   -0.553161
  Au     0.000000   -1.564540   -0.553099

 Total Charge           Charge          ....    2
 Multiplicity           Mult            ....    1
 Number of Electrons    NEL             ....   74
 Basis Dimension        Dim             ....  236

ORBITAL ENERGIES
----------------

  NO   OCC          E(Eh)            E(eV)
   0   2.0000      -4.887793      -133.0036
   1   2.0000      -4.887255      -132.9890
   2   2.0000      -4.887253      -132.9889
   3   2.0000      -4.887252      -132.9889
   4   2.0000      -2.985808       -81.2480
   5   2.0000      -2.978981       -81.0622
   6   2.0000      -2.978980       -81.0622
   7   2.0000      -2.978978       -81.0621
   8   2.0000      -2.975682       -80.9724
   9   2.0000      -2.975680       -80.9724
  10   2.0000      -2.972638       -80.8896
  11   2.0000      -2.972635       -80.8895
  12   2.0000      -2.972634       -80.8895
  13   2.0000      -2.972003       -80.8723
  14   2.0000      -2.972002       -80.8723
  15   2.0000      -2.972000       -80.8722
  16   2.0000      -0.893618       -24.3166
  17   2.0000      -0.850596       -23.1459
  18   2.0000      -0.850592       -23.1458
  19   2.0000      -0.850588       -23.1457
  20   2.0000      -0.835389       -22.7321
  21   2.0000      -0.835385       -22.7320
  22   2.0000      -0.811234       -22.0748
  23   2.0000      -0.811233       -22.0748
  24   2.0000      -0.811229       -22.0747
  25   2.0000      -0.773545       -21.0492
  26   2.0000      -0.773544       -21.0492
  27   2.0000      -0.773543       -21.0492
  28   2.0000      -0.770757       -20.9734
  29   2.0000      -0.770755       -20.9733
  30   2.0000      -0.770753       -20.9733
  31   2.0000      -0.770360       -20.9626
  32   2.0000      -0.770358       -20.9625
  33   2.0000      -0.732611       -19.9354
  34   2.0000      -0.732610       -19.9353
  35   2.0000      -0.732603       -19.9351
  36   2.0000      -0.726238       -19.7620
  37   0.0000      -0.399438       -10.8693
  38   0.0000      -0.399437       -10.8692
  39   0.0000      -0.399432       -10.8691
  40   0.0000      -0.270527        -7.3614
  41   0.0000      -0.258213        -7.0263

MULLIKEN ATOMIC CHARGES
-----------------------
   0 Au:    0.500002
   1 Au:    0.500009
   2 Au:    0.500003
   3 Au:    0.499987
Sum of atomic charges:    2.0000000

LOEWDIN ATOMIC CHARGES
----------------------
   0 Au:    0.499995
   1 Au:    0.500007
   2 Au:    0.500007
   3 Au:    0.499991

  Mayer bond orders larger than 0.100000
B(  0-Au,  1-Au) :   0.3855 B(  0-Au,  2-Au) :   0.3855 B(  0-Au,  3-Au) :   0.3855
B(  1-Au,  2-Au) :   0.3855 B(  1-Au,  3-Au) :   0.3855 B(  2-Au,  3-Au) :   0.3855

MP2 TOTAL ENERGY:     -541.499671954 Eh
Dispersion correction           -0.025325686
FINAL SINGLE POINT ENERGY      -541.524997640160

DIPOLE MOMENT
-------------
                                X             Y             Z
Electronic contribution:     -0.00000       0.00004      -0.00002
Nuclear contribution   :      0.00000       0.00000       0.00000
                        -----------------------------------------
Total Dipole Moment    :     -0.00000       0.00004      -0.00002
                        -----------------------------------------
Magnitude (a.u.)       :      0.00005
Magnitude (Debye)      :      0.00013

Rotational constants in cm-1:     0.011655     0.011655     0.011654
Rotational constants in MHz :   349.408482   349.408217   349.388110

                             ****ORCA TERMINATED NORMALLY****
TOTAL RUN TIME: 0 days 0 hours 0 minutes 11 seconds 513 msec
