                         Program Version 4.2.0 -  RELEASE  -
|  1> #
|  2> # Au04C2_H_F ri-DSD-BLYP/2013-D3BJ/Def2-TZVPPD
|  3> #
|  4> ! rijk ri-dsd-blyp/2013 d3bj def2-tzvppd def2/jk def2-tzvppd/c grid4 nofinalgrid
|  5>
|  6> *xyz 2 2
|  7> Au       0.000000    1.567068   -0.568281
|  8> Au       1.357120   -0.783534   -0.568281
|  9> Au      -1.357120   -0.783534   -0.568281
| 10> Au       0.000000    0.000000    1.725922
| 11> H        0.000000    0.000000   -1.665144
| 12> *
| 13>
| 14> %maxcore 5000
| 15>
| 16> %pal
| 17> nprocs = 24
| 18> end
| 19>
| 20>
| 21>                          ****END OF INPUT****

CARTESIAN COORDINATES (ANGSTROEM)
---------------------------------
  Au     0.000000    1.567068   -0.568281
  Au     1.357120   -0.783534   -0.568281
  Au    -1.357120   -0.783534   -0.568281
  Au     0.000000    0.000000    1.725922
  H      0.000000    0.000000   -1.665144

 Total Charge           Charge          ....    2
 Multiplicity           Mult            ....    2
 Number of Electrons    NEL             ....   75
 Basis Dimension        Dim             ....  253

ORBITAL ENERGIES
----------------
                 SPIN UP ORBITALS
  NO   OCC          E(Eh)            E(eV)
   0   1.0000      -4.908887      -133.5776
   1   1.0000      -4.908481      -133.5665
   2   1.0000      -4.908481      -133.5665
   3   1.0000      -4.870060      -132.5211
   4   1.0000      -3.007312       -81.8331
   5   1.0000      -3.000791       -81.6557
   6   1.0000      -3.000791       -81.6557
   7   1.0000      -2.996926       -81.5505
   8   1.0000      -2.995944       -81.5238
   9   1.0000      -2.995944       -81.5238
  10   1.0000      -2.993487       -81.4569
  11   1.0000      -2.993486       -81.4569
  12   1.0000      -2.991467       -81.4020
  13   1.0000      -2.959071       -80.5204
  14   1.0000      -2.954718       -80.4020
  15   1.0000      -2.954717       -80.4019
  16   1.0000      -0.979527       -26.6543
  17   1.0000      -0.898694       -24.4547
  18   1.0000      -0.860219       -23.4077
  19   1.0000      -0.860218       -23.4077
  20   1.0000      -0.844479       -22.9795
  21   1.0000      -0.844479       -22.9794
  22   1.0000      -0.836310       -22.7571
  23   1.0000      -0.817852       -22.2549
  24   1.0000      -0.817852       -22.2549
  25   1.0000      -0.796886       -21.6844
  26   1.0000      -0.796884       -21.6843
  27   1.0000      -0.795952       -21.6590
  28   1.0000      -0.791052       -21.5256
  29   1.0000      -0.789212       -21.4755
  30   1.0000      -0.789212       -21.4755
  31   1.0000      -0.765713       -20.8361
  32   1.0000      -0.765711       -20.8361
  33   1.0000      -0.755090       -20.5470
  34   1.0000      -0.752767       -20.4838
  35   1.0000      -0.741781       -20.1849
  36   1.0000      -0.741780       -20.1849
  37   1.0000      -0.607060       -16.5189
  38   0.0000      -0.411462       -11.1965
  39   0.0000      -0.411461       -11.1964
  40   0.0000      -0.341399        -9.2899
  41   0.0000      -0.279929        -7.6172
  42   0.0000      -0.265925        -7.2362

                 SPIN DOWN ORBITALS
  NO   OCC          E(Eh)            E(eV)
   0   1.0000      -4.905219      -133.4778
   1   1.0000      -4.904838      -133.4674
   2   1.0000      -4.904838      -133.4674
   3   1.0000      -4.868422      -132.4765
   4   1.0000      -3.000874       -81.6579
   5   1.0000      -2.995851       -81.5212
   6   1.0000      -2.995850       -81.5212
   7   1.0000      -2.991014       -81.3896
   8   1.0000      -2.991014       -81.3896
   9   1.0000      -2.990582       -81.3779
  10   1.0000      -2.990561       -81.3773
  11   1.0000      -2.989818       -81.3571
  12   1.0000      -2.989818       -81.3571
  13   1.0000      -2.959066       -80.5203
  14   1.0000      -2.955263       -80.4168
  15   1.0000      -2.955262       -80.4168
  16   1.0000      -0.946453       -25.7543
  17   1.0000      -0.889241       -24.1975
  18   1.0000      -0.859484       -23.3878
  19   1.0000      -0.859483       -23.3877
  20   1.0000      -0.837969       -22.8023
  21   1.0000      -0.837969       -22.8023
  22   1.0000      -0.830377       -22.5957
  23   1.0000      -0.815184       -22.1823
  24   1.0000      -0.815184       -22.1823
  25   1.0000      -0.789802       -21.4916
  26   1.0000      -0.789212       -21.4755
  27   1.0000      -0.789209       -21.4755
  28   1.0000      -0.781509       -21.2660
  29   1.0000      -0.781506       -21.2658
  30   1.0000      -0.780452       -21.2372
  31   1.0000      -0.762719       -20.7546
  32   1.0000      -0.762716       -20.7545
  33   1.0000      -0.750316       -20.4171
  34   1.0000      -0.743589       -20.2341
  35   1.0000      -0.734455       -19.9855
  36   1.0000      -0.734454       -19.9855
  37   0.0000      -0.426540       -11.6067
  38   0.0000      -0.405323       -11.0294
  39   0.0000      -0.405323       -11.0294
  40   0.0000      -0.313016        -8.5176
  41   0.0000      -0.267625        -7.2825

MULLIKEN ATOMIC CHARGES AND SPIN POPULATIONS
--------------------------------------------
   0 Au:    0.538258    0.061383
   1 Au:    0.538195    0.061362
   2 Au:    0.538206    0.061363
   3 Au:    0.341084    0.489699
   4 H :    0.044258    0.326193
Sum of atomic charges         :    2.0000000

LOEWDIN ATOMIC CHARGES AND SPIN POPULATIONS
-------------------------------------------
   0 Au:    0.549686    0.186515
   1 Au:    0.549690    0.186517
   2 Au:    0.549690    0.186517
   3 Au:    0.468344    0.261272
   4 H :   -0.117409    0.179178

  Mayer bond orders larger than 0.100000
B(  0-Au,  1-Au) :   0.3461 B(  0-Au,  2-Au) :   0.3461 B(  0-Au,  3-Au) :   0.3373
B(  0-Au,  4-H ) :   0.2963 B(  1-Au,  2-Au) :   0.3461 B(  1-Au,  3-Au) :   0.3374
B(  1-Au,  4-H ) :   0.2964 B(  2-Au,  3-Au) :   0.3374 B(  2-Au,  4-H ) :   0.2964

MP2 TOTAL ENERGY:     -542.029186487 Eh
Dispersion correction           -0.026595382
FINAL SINGLE POINT ENERGY      -542.055781869093

DIPOLE MOMENT
-------------
                                X             Y             Z
Electronic contribution:     -0.00000      -0.00000       2.48932
Nuclear contribution   :      0.00000       0.00000      -2.84605
                        -----------------------------------------
Total Dipole Moment    :     -0.00000      -0.00000      -0.35673
                        -----------------------------------------
Magnitude (a.u.)       :      0.35673
Magnitude (Debye)      :      0.90674

Rotational constants in cm-1:     0.011617     0.011195     0.011195
Rotational constants in MHz :   348.279987   335.605170   335.605004

                             ****ORCA TERMINATED NORMALLY****
TOTAL RUN TIME: 0 days 0 hours 0 minutes 17 seconds 898 msec
