                         Program Version 4.2.0 -  RELEASE  -
|  1> #
|  2> # Au04C2_H_A ri-DSD-BLYP/2013-D3BJ/Def2-TZVPPD
|  3> #
|  4> ! rijk ri-dsd-blyp/2013 d3bj def2-tzvppd def2/jk def2-tzvppd/c grid4 nofinalgrid
|  5>
|  6> *xyz 2 2
|  7> Au       0.000000    0.000000    1.750714
|  8> Au      -0.000000    1.549973   -0.597614
|  9> Au       1.342316   -0.774986   -0.597614
| 10> Au      -1.342316   -0.774986   -0.597614
| 11> H        0.000000    0.000000    3.328141
| 12> *
| 13>
| 14> %maxcore 5000
| 15>
| 16> %pal
| 17> nprocs = 24
| 18> end
| 19>
| 20>
| 21>                          ****END OF INPUT****

CARTESIAN COORDINATES (ANGSTROEM)
---------------------------------
  Au     0.000000    0.000000    1.750714
  Au    -0.000000    1.549973   -0.597614
  Au     1.342316   -0.774986   -0.597614
  Au    -1.342316   -0.774986   -0.597614
  H      0.000000    0.000000    3.328141

 Total Charge           Charge          ....    2
 Multiplicity           Mult            ....    2
 Number of Electrons    NEL             ....   75
 Basis Dimension        Dim             ....  253

ORBITAL ENERGIES
----------------
                 SPIN UP ORBITALS
  NO   OCC          E(Eh)            E(eV)
   0   1.0000      -4.929813      -134.1470
   1   1.0000      -4.888176      -133.0140
   2   1.0000      -4.887711      -133.0014
   3   1.0000      -4.887711      -133.0014
   4   1.0000      -3.026777       -82.3628
   5   1.0000      -3.008239       -81.8584
   6   1.0000      -3.008239       -81.8583
   7   1.0000      -2.984542       -81.2135
   8   1.0000      -2.978554       -81.0506
   9   1.0000      -2.978553       -81.0506
  10   1.0000      -2.974796       -80.9483
  11   1.0000      -2.974488       -80.9399
  12   1.0000      -2.974486       -80.9399
  13   1.0000      -2.972486       -80.8854
  14   1.0000      -2.972484       -80.8854
  15   1.0000      -2.971924       -80.8702
  16   1.0000      -0.941053       -25.6073
  17   1.0000      -0.866037       -23.5661
  18   1.0000      -0.859055       -23.3761
  19   1.0000      -0.859054       -23.3761
  20   1.0000      -0.841796       -22.9064
  21   1.0000      -0.841796       -22.9064
  22   1.0000      -0.836653       -22.7665
  23   1.0000      -0.824041       -22.4233
  24   1.0000      -0.824039       -22.4232
  25   1.0000      -0.812976       -22.1222
  26   1.0000      -0.792699       -21.5704
  27   1.0000      -0.792698       -21.5704
  28   1.0000      -0.772351       -21.0167
  29   1.0000      -0.771630       -20.9971
  30   1.0000      -0.771630       -20.9971
  31   1.0000      -0.768866       -20.9219
  32   1.0000      -0.768865       -20.9219
  33   1.0000      -0.750571       -20.4241
  34   1.0000      -0.750570       -20.4240
  35   1.0000      -0.748667       -20.3723
  36   1.0000      -0.729307       -19.8455
  37   1.0000      -0.696454       -18.9515
  38   0.0000      -0.400912       -10.9094
  39   0.0000      -0.400912       -10.9094
  40   0.0000      -0.350167        -9.5285
  41   0.0000      -0.266106        -7.2411
  42   0.0000      -0.265109        -7.2140

                 SPIN DOWN ORBITALS
  NO   OCC          E(Eh)            E(eV)
   0   1.0000      -4.918217      -133.8315
   1   1.0000      -4.887979      -133.0087
   2   1.0000      -4.887518      -132.9961
   3   1.0000      -4.887517      -132.9961
   4   1.0000      -3.004586       -81.7589
   5   1.0000      -3.001010       -81.6616
   6   1.0000      -3.001010       -81.6616
   7   1.0000      -2.984300       -81.2069
   8   1.0000      -2.978538       -81.0501
   9   1.0000      -2.978536       -81.0501
  10   1.0000      -2.974316       -80.9353
  11   1.0000      -2.974314       -80.9352
  12   1.0000      -2.974284       -80.9344
  13   1.0000      -2.972315       -80.8808
  14   1.0000      -2.972314       -80.8808
  15   1.0000      -2.972104       -80.8751
  16   1.0000      -0.905439       -24.6382
  17   1.0000      -0.858890       -23.3716
  18   1.0000      -0.856856       -23.3162
  19   1.0000      -0.856856       -23.3162
  20   1.0000      -0.838983       -22.8299
  21   1.0000      -0.838983       -22.8299
  22   1.0000      -0.814910       -22.1748
  23   1.0000      -0.814908       -22.1748
  24   1.0000      -0.813848       -22.1459
  25   1.0000      -0.809166       -22.0185
  26   1.0000      -0.787424       -21.4269
  27   1.0000      -0.787423       -21.4269
  28   1.0000      -0.771896       -21.0044
  29   1.0000      -0.771408       -20.9911
  30   1.0000      -0.771408       -20.9911
  31   1.0000      -0.768849       -20.9214
  32   1.0000      -0.768848       -20.9214
  33   1.0000      -0.746859       -20.3231
  34   1.0000      -0.746858       -20.3230
  35   1.0000      -0.730119       -19.8676
  36   1.0000      -0.717826       -19.5330
  37   0.0000      -0.449377       -12.2282
  38   0.0000      -0.399462       -10.8699
  39   0.0000      -0.399461       -10.8699
  40   0.0000      -0.326482        -8.8840
  41   0.0000      -0.263532        -7.1711

MULLIKEN ATOMIC CHARGES AND SPIN POPULATIONS
--------------------------------------------
   0 Au:    0.373902    0.491504
   1 Au:    0.483443    0.015639
   2 Au:    0.483358    0.015639
   3 Au:    0.483363    0.015634
   4 H :    0.175934    0.461585
Sum of atomic charges         :    2.0000000

LOEWDIN ATOMIC CHARGES AND SPIN POPULATIONS
-------------------------------------------
   0 Au:    0.571962    0.507879
   1 Au:    0.486197    0.028598
   2 Au:    0.486197    0.028598
   3 Au:    0.486197    0.028598
   4 H :   -0.030553    0.406327

  Mayer bond orders larger than 0.100000
B(  0-Au,  1-Au) :   0.2891 B(  0-Au,  2-Au) :   0.2891 B(  0-Au,  3-Au) :   0.2891
B(  0-Au,  4-H ) :   0.7906 B(  1-Au,  2-Au) :   0.4316 B(  1-Au,  3-Au) :   0.4316
B(  2-Au,  3-Au) :   0.4316

MP2 TOTAL ENERGY:     -542.048009002 Eh
Dispersion correction           -0.025287183
FINAL SINGLE POINT ENERGY      -542.073296185640

DIPOLE MOMENT
-------------
                                X             Y             Z
Electronic contribution:     -0.00000       0.00001      -5.58598
Nuclear contribution   :      0.00000      -0.00000       5.68843
                        -----------------------------------------
Total Dipole Moment    :     -0.00000       0.00001       0.10245
                        -----------------------------------------
Magnitude (a.u.)       :      0.10245
Magnitude (Debye)      :      0.26041

Rotational constants in cm-1:     0.011875     0.010977     0.010977
Rotational constants in MHz :   356.004762   329.094939   329.094872

                             ****ORCA TERMINATED NORMALLY****
TOTAL RUN TIME: 0 days 0 hours 0 minutes 21 seconds 15 msec
