                         Program Version 4.2.0 -  RELEASE  -
|  1> #
|  2> # Au04N0 ri-DSD-BLYP/2013-D3BJ/Def2-TZVPPD
|  3> #
|  4> ! rijk ri-dsd-blyp/2013 d3bj def2-tzvppd def2/jk def2-tzvppd/c grid4 nofinalgrid
|  5>
|  6> *xyz 0 1
|  7> Au      -0.788661   -0.016684    2.209526
|  8> Au      -1.223332   -0.011467   -0.436740
|  9> Au       0.788385    0.016579   -2.209564
| 10> Au       1.223608    0.011572    0.436778
| 11> *
| 12>
| 13> %maxcore 5000
| 14>
| 15> %pal
| 16> nprocs = 24
| 17> end
| 18>
| 19>
| 20>                          ****END OF INPUT****

CARTESIAN COORDINATES (ANGSTROEM)
---------------------------------
  Au    -0.788661   -0.016684    2.209526
  Au    -1.223332   -0.011467   -0.436740
  Au     0.788385    0.016579   -2.209564
  Au     1.223608    0.011572    0.436778

 Total Charge           Charge          ....    0
 Multiplicity           Mult            ....    1
 Number of Electrons    NEL             ....   76
 Basis Dimension        Dim             ....  236

ORBITAL ENERGIES
----------------

  NO   OCC          E(Eh)            E(eV)
   0   2.0000      -4.517008      -122.9140
   1   2.0000      -4.516505      -122.9004
   2   2.0000      -4.488371      -122.1348
   3   2.0000      -4.488361      -122.1345
   4   2.0000      -2.612533       -71.0906
   5   2.0000      -2.605324       -70.8945
   6   2.0000      -2.603909       -70.8560
   7   2.0000      -2.602090       -70.8065
   8   2.0000      -2.601753       -70.7973
   9   2.0000      -2.600940       -70.7752
  10   2.0000      -2.576407       -70.1076
  11   2.0000      -2.575683       -70.0879
  12   2.0000      -2.573557       -70.0301
  13   2.0000      -2.573243       -70.0215
  14   2.0000      -2.570683       -69.9518
  15   2.0000      -2.570659       -69.9512
  16   2.0000      -0.497579       -13.5398
  17   2.0000      -0.492761       -13.4087
  18   2.0000      -0.463934       -12.6243
  19   2.0000      -0.462225       -12.5778
  20   2.0000      -0.456590       -12.4245
  21   2.0000      -0.448395       -12.2014
  22   2.0000      -0.429331       -11.6827
  23   2.0000      -0.428659       -11.6644
  24   2.0000      -0.397970       -10.8293
  25   2.0000      -0.397952       -10.8288
  26   2.0000      -0.395816       -10.7707
  27   2.0000      -0.390467       -10.6252
  28   2.0000      -0.388158       -10.5623
  29   2.0000      -0.386159       -10.5079
  30   2.0000      -0.376858       -10.2548
  31   2.0000      -0.373697       -10.1688
  32   2.0000      -0.369184       -10.0460
  33   2.0000      -0.368538       -10.0284
  34   2.0000      -0.365145        -9.9361
  35   2.0000      -0.345237        -9.3944
  36   2.0000      -0.336515        -9.1570
  37   2.0000      -0.234043        -6.3686
  38   0.0000      -0.068567        -1.8658
  39   0.0000      -0.029312        -0.7976
  40   0.0000       0.001989         0.0541
  41   0.0000       0.031615         0.8603
  42   0.0000       0.035310         0.9608

MULLIKEN ATOMIC CHARGES
-----------------------
   0 Au:   -0.165924
   1 Au:    0.165877
   2 Au:   -0.165912
   3 Au:    0.165958
Sum of atomic charges:    0.0000000

LOEWDIN ATOMIC CHARGES
----------------------
   0 Au:    0.085719
   1 Au:   -0.085816
   2 Au:    0.085739
   3 Au:   -0.085642

  Mayer bond orders larger than 0.100000
B(  0-Au,  1-Au) :   0.5277 B(  0-Au,  2-Au) :   0.1635 B(  0-Au,  3-Au) :   0.5276
B(  1-Au,  2-Au) :   0.5278 B(  1-Au,  3-Au) :   0.4394 B(  2-Au,  3-Au) :   0.5276

MP2 TOTAL ENERGY:     -542.228144014 Eh
Dispersion correction           -0.022338535
FINAL SINGLE POINT ENERGY      -542.250482548500

DIPOLE MOMENT
-------------
                                X             Y             Z
Electronic contribution:      0.00040       0.00001       0.00000
Nuclear contribution   :     -0.00000      -0.00000       0.00000
                        -----------------------------------------
Total Dipole Moment    :      0.00040       0.00001       0.00000
                        -----------------------------------------
Magnitude (a.u.)       :      0.00040
Magnitude (Debye)      :      0.00102

Rotational constants in cm-1:     0.025355     0.007775     0.005950
Rotational constants in MHz :   760.119680   233.080651   178.382130

                             ****ORCA TERMINATED NORMALLY****
TOTAL RUN TIME: 0 days 0 hours 0 minutes 12 seconds 510 msec
