                         Program Version 4.2.0 -  RELEASE  -
|  1> #
|  2> # Au04C2_H_E ri-DSD-BLYP/2013-D3BJ/Def2-TZVPPD
|  3> #
|  4> ! rijk ri-dsd-blyp/2013 d3bj def2-tzvppd def2/jk def2-tzvppd/c grid4 nofinalgrid
|  5>
|  6> *xyz 2 2
|  7> Au       0.000000    1.337591    1.056475
|  8> Au      -0.000000   -1.337591    1.056475
|  9> Au      -1.306954    0.000000   -1.070288
| 10> Au       1.306954   -0.000000   -1.070288
| 11> H       -0.000000    0.000000    2.182427
| 12> *
| 13>
| 14> %maxcore 5000
| 15>
| 16> %pal
| 17> nprocs = 24
| 18> end
| 19>
| 20>
| 21>                          ****END OF INPUT****

CARTESIAN COORDINATES (ANGSTROEM)
---------------------------------
  Au     0.000000    1.337591    1.056475
  Au    -0.000000   -1.337591    1.056475
  Au    -1.306954    0.000000   -1.070288
  Au     1.306954   -0.000000   -1.070288
  H     -0.000000    0.000000    2.182427

 Total Charge           Charge          ....    2
 Multiplicity           Mult            ....    2
 Number of Electrons    NEL             ....   75
 Basis Dimension        Dim             ....  253

ORBITAL ENERGIES
----------------
                 SPIN UP ORBITALS
  NO   OCC          E(Eh)            E(eV)
   0   1.0000      -4.914317      -133.7254
   1   1.0000      -4.913982      -133.7162
   2   1.0000      -4.882978      -132.8726
   3   1.0000      -4.882516      -132.8600
   4   1.0000      -3.012290       -81.9686
   5   1.0000      -3.006224       -81.8035
   6   1.0000      -3.002994       -81.7156
   7   1.0000      -3.000429       -81.6458
   8   1.0000      -2.995779       -81.5193
   9   1.0000      -2.995073       -81.5001
  10   1.0000      -2.977489       -81.0216
  11   1.0000      -2.970960       -80.8439
  12   1.0000      -2.970326       -80.8267
  13   1.0000      -2.968394       -80.7741
  14   1.0000      -2.967744       -80.7564
  15   1.0000      -2.966320       -80.7177
  16   1.0000      -0.959328       -26.1046
  17   1.0000      -0.895426       -24.3658
  18   1.0000      -0.857255       -23.3271
  19   1.0000      -0.855695       -23.2847
  20   1.0000      -0.851289       -23.1647
  21   1.0000      -0.837299       -22.7841
  22   1.0000      -0.832188       -22.6450
  23   1.0000      -0.828390       -22.5416
  24   1.0000      -0.814508       -22.1639
  25   1.0000      -0.797528       -21.7018
  26   1.0000      -0.795233       -21.6394
  27   1.0000      -0.791853       -21.5474
  28   1.0000      -0.790166       -21.5015
  29   1.0000      -0.788302       -21.4508
  30   1.0000      -0.776548       -21.1309
  31   1.0000      -0.762844       -20.7580
  32   1.0000      -0.761964       -20.7341
  33   1.0000      -0.758372       -20.6364
  34   1.0000      -0.758257       -20.6332
  35   1.0000      -0.748799       -20.3759
  36   1.0000      -0.734341       -19.9824
  37   1.0000      -0.632219       -17.2035
  38   0.0000      -0.410583       -11.1725
  39   0.0000      -0.397566       -10.8183
  40   0.0000      -0.339623        -9.2416
  41   0.0000      -0.279667        -7.6101
  42   0.0000      -0.278767        -7.5856

                 SPIN DOWN ORBITALS
  NO   OCC          E(Eh)            E(eV)
   0   1.0000      -4.907626      -133.5433
   1   1.0000      -4.907336      -133.5354
   2   1.0000      -4.881652      -132.8365
   3   1.0000      -4.881204      -132.8243
   4   1.0000      -3.000036       -81.6351
   5   1.0000      -2.993144       -81.4476
   6   1.0000      -2.992996       -81.4436
   7   1.0000      -2.992638       -81.4338
   8   1.0000      -2.992332       -81.4255
   9   1.0000      -2.992097       -81.4191
  10   1.0000      -2.977210       -81.0140
  11   1.0000      -2.969738       -80.8107
  12   1.0000      -2.968560       -80.7786
  13   1.0000      -2.968469       -80.7762
  14   1.0000      -2.967962       -80.7624
  15   1.0000      -2.966482       -80.7221
  16   1.0000      -0.919543       -25.0220
  17   1.0000      -0.887190       -24.1417
  18   1.0000      -0.852823       -23.2065
  19   1.0000      -0.851615       -23.1736
  20   1.0000      -0.845305       -23.0019
  21   1.0000      -0.833163       -22.6715
  22   1.0000      -0.828288       -22.5389
  23   1.0000      -0.824200       -22.4276
  24   1.0000      -0.804529       -21.8923
  25   1.0000      -0.789888       -21.4939
  26   1.0000      -0.789172       -21.4744
  27   1.0000      -0.788253       -21.4495
  28   1.0000      -0.781596       -21.2683
  29   1.0000      -0.779010       -21.1979
  30   1.0000      -0.772484       -21.0204
  31   1.0000      -0.762658       -20.7530
  32   1.0000      -0.761194       -20.7131
  33   1.0000      -0.745094       -20.2750
  34   1.0000      -0.738976       -20.1086
  35   1.0000      -0.738776       -20.1031
  36   1.0000      -0.729502       -19.8508
  37   0.0000      -0.447264       -12.1707
  38   0.0000      -0.404212       -10.9992
  39   0.0000      -0.390878       -10.6363
  40   0.0000      -0.311083        -8.4650
  41   0.0000      -0.272266        -7.4087

MULLIKEN ATOMIC CHARGES AND SPIN POPULATIONS
--------------------------------------------
   0 Au:    0.520596    0.099212
   1 Au:    0.520582    0.099214
   2 Au:    0.449676    0.240385
   3 Au:    0.449684    0.240387
   4 H :    0.059462    0.320802
Sum of atomic charges         :    2.0000000

LOEWDIN ATOMIC CHARGES AND SPIN POPULATIONS
-------------------------------------------
   0 Au:    0.570283    0.247022
   1 Au:    0.570282    0.247022
   2 Au:    0.489088    0.158737
   3 Au:    0.489088    0.158737
   4 H :   -0.118741    0.188482

  Mayer bond orders larger than 0.100000
B(  0-Au,  1-Au) :   0.4524 B(  0-Au,  2-Au) :   0.2812 B(  0-Au,  3-Au) :   0.2812
B(  0-Au,  4-H ) :   0.4624 B(  1-Au,  2-Au) :   0.2812 B(  1-Au,  3-Au) :   0.2812
B(  1-Au,  4-H ) :   0.4624 B(  2-Au,  3-Au) :   0.5486

MP2 TOTAL ENERGY:     -542.047273390 Eh
Dispersion correction           -0.025589571
FINAL SINGLE POINT ENERGY      -542.072862960120

DIPOLE MOMENT
-------------
                                X             Y             Z
Electronic contribution:      0.00000       0.00000      -3.60554
Nuclear contribution   :      0.00000       0.00000       3.73018
                        -----------------------------------------
Total Dipole Moment    :      0.00000       0.00000       0.12465
                        -----------------------------------------
Magnitude (a.u.)       :      0.12465
Magnitude (Debye)      :      0.31682

Rotational constants in cm-1:     0.012236     0.010747     0.010533
Rotational constants in MHz :   366.830155   322.181581   315.756842

                             ****ORCA TERMINATED NORMALLY****
TOTAL RUN TIME: 0 days 0 hours 0 minutes 16 seconds 961 msec
