                         Program Version 4.2.0 -  RELEASE  -
|  1> #
|  2> # Au04C2_NH3_A ri-DSD-BLYP/2013-D3BJ/Def2-TZVPPD
|  3> #
|  4> ! rijk ri-dsd-blyp/2013 d3bj def2-tzvppd def2/jk def2-tzvppd/c grid4 nofinalgrid
|  5>
|  6> *xyz 2 1
|  7> Au      -0.274490    1.572639   -0.000000
|  8> Au       1.635934   -0.418177    0.000000
|  9> Au      -0.639028   -0.815642    1.333593
| 10> Au      -0.639028   -0.815642   -1.333593
| 11> N       -0.639028    3.654013   -0.000000
| 12> H       -0.235750    4.112347    0.824759
| 13> H       -0.235750    4.112347   -0.824759
| 14> H       -1.642949    3.866239   -0.000000
| 15> *
| 16>
| 17> %maxcore 5000
| 18>
| 19> %pal
| 20> nprocs = 24
| 21> end
| 22>
| 23>
| 24>                          ****END OF INPUT****

CARTESIAN COORDINATES (ANGSTROEM)
---------------------------------
  Au    -0.274490    1.572639   -0.000000
  Au     1.635934   -0.418177    0.000000
  Au    -0.639028   -0.815642    1.333593
  Au    -0.639028   -0.815642   -1.333593
  N     -0.639028    3.654013   -0.000000
  H     -0.235750    4.112347    0.824759
  H     -0.235750    4.112347   -0.824759
  H     -1.642949    3.866239   -0.000000

 Total Charge           Charge          ....    2
 Multiplicity           Mult            ....    1
 Number of Electrons    NEL             ....   84
 Basis Dimension        Dim             ....  324

ORBITAL ENERGIES
----------------

  NO   OCC          E(Eh)            E(eV)
   0   2.0000     -15.468424      -420.9172
   1   2.0000      -4.854369      -132.0941
   2   2.0000      -4.853858      -132.0802
   3   2.0000      -4.853850      -132.0800
   4   2.0000      -4.846259      -131.8734
   5   2.0000      -2.951945       -80.3265
   6   2.0000      -2.945167       -80.1421
   7   2.0000      -2.945163       -80.1420
   8   2.0000      -2.942309       -80.0643
   9   2.0000      -2.940750       -80.0219
  10   2.0000      -2.940744       -80.0217
  11   2.0000      -2.938589       -79.9631
  12   2.0000      -2.938586       -79.9630
  13   2.0000      -2.938286       -79.9548
  14   2.0000      -2.934962       -79.8644
  15   2.0000      -2.928421       -79.6864
  16   2.0000      -2.928418       -79.6863
  17   2.0000      -1.393559       -37.9207
  18   2.0000      -0.923226       -25.1222
  19   2.0000      -0.923215       -25.1220
  20   2.0000      -0.875014       -23.8103
  21   2.0000      -0.831033       -22.6135
  22   2.0000      -0.812784       -22.1170
  23   2.0000      -0.812744       -22.1159
  24   2.0000      -0.799986       -21.7687
  25   2.0000      -0.796498       -21.6738
  26   2.0000      -0.796495       -21.6737
  27   2.0000      -0.779461       -21.2102
  28   2.0000      -0.771502       -20.9936
  29   2.0000      -0.771501       -20.9936
  30   2.0000      -0.738098       -20.0847
  31   2.0000      -0.737340       -20.0641
  32   2.0000      -0.737323       -20.0636
  33   2.0000      -0.734953       -19.9991
  34   2.0000      -0.734943       -19.9988
  35   2.0000      -0.730918       -19.8893
  36   2.0000      -0.730909       -19.8890
  37   2.0000      -0.697122       -18.9697
  38   2.0000      -0.695838       -18.9347
  39   2.0000      -0.695819       -18.9342
  40   2.0000      -0.695801       -18.9337
  41   2.0000      -0.672308       -18.2944
  42   0.0000      -0.369984       -10.0678
  43   0.0000      -0.369968       -10.0673
  44   0.0000      -0.327589        -8.9142
  45   0.0000      -0.242719        -6.6047
  46   0.0000      -0.231892        -6.3101

MULLIKEN ATOMIC CHARGES
-----------------------
   0 Au:    0.293111
   1 Au:    0.449709
   2 Au:    0.449992
   3 Au:    0.450008
   4 N :   -0.390372
   5 H :    0.249176
   6 H :    0.249173
   7 H :    0.249203
Sum of atomic charges:    2.0000000

LOEWDIN ATOMIC CHARGES
----------------------
   0 Au:    0.413425
   1 Au:    0.463318
   2 Au:    0.463382
   3 Au:    0.463382
   4 N :    0.388448
   5 H :   -0.063986
   6 H :   -0.063986
   7 H :   -0.063984

  Mayer bond orders larger than 0.100000
B(  0-Au,  1-Au) :   0.3010 B(  0-Au,  2-Au) :   0.3008 B(  0-Au,  3-Au) :   0.3008
B(  0-Au,  4-N ) :   0.6180 B(  1-Au,  2-Au) :   0.4329 B(  1-Au,  3-Au) :   0.4329
B(  2-Au,  3-Au) :   0.4326 B(  4-N ,  5-H ) :   0.9608 B(  4-N ,  6-H ) :   0.9608
B(  4-N ,  7-H ) :   0.9607

MP2 TOTAL ENERGY:     -598.128024436 Eh
Dispersion correction           -0.028998260
FINAL SINGLE POINT ENERGY      -598.157022695689

DIPOLE MOMENT
-------------
                                X             Y             Z
Electronic contribution:     10.12695     -57.90962      -0.00000
Nuclear contribution   :    -10.53350      60.23199       0.00000
                        -----------------------------------------
Total Dipole Moment    :     -0.40655       2.32237      -0.00000
                        -----------------------------------------
Magnitude (a.u.)       :      2.35768
Magnitude (Debye)      :      5.99276

Rotational constants in cm-1:     0.012010     0.009744     0.009743
Rotational constants in MHz :   360.039216   292.121240   292.077350

                             ****ORCA TERMINATED NORMALLY****
TOTAL RUN TIME: 0 days 0 hours 0 minutes 17 seconds 741 msec
