                         Program Version 4.2.0 -  RELEASE  -
|  1> #
|  2> # Au04C2_NH3_F ri-DSD-BLYP/2013-D3BJ/Def2-TZVPPD
|  3> #
|  4> ! rijk ri-dsd-blyp/2013 d3bj def2-tzvppd def2/jk def2-tzvppd/c grid4 nofinalgrid
|  5>
|  6> *xyz 2 1
|  7> Au       0.000000    1.548281   -0.453246
|  8> Au       1.340851   -0.774141   -0.453246
|  9> Au      -1.340851   -0.774141   -0.453246
| 10> Au       0.000000    0.000000    1.783664
| 11> N        0.000000    0.000000   -3.226055
| 12> H       -0.813891    0.469900   -3.635956
| 13> H        0.813891    0.469900   -3.635956
| 14> H       -0.000000   -0.939800   -3.635956
| 15> *
| 16>
| 17> %maxcore 5000
| 18>
| 19> %pal
| 20> nprocs = 24
| 21> end
| 22>
| 23>
| 24>                          ****END OF INPUT****

CARTESIAN COORDINATES (ANGSTROEM)
---------------------------------
  Au     0.000000    1.548281   -0.453246
  Au     1.340851   -0.774141   -0.453246
  Au    -1.340851   -0.774141   -0.453246
  Au     0.000000    0.000000    1.783664
  N      0.000000    0.000000   -3.226055
  H     -0.813891    0.469900   -3.635956
  H      0.813891    0.469900   -3.635956
  H     -0.000000   -0.939800   -3.635956

 Total Charge           Charge          ....    2
 Multiplicity           Mult            ....    1
 Number of Electrons    NEL             ....   84
 Basis Dimension        Dim             ....  324

ORBITAL ENERGIES
----------------

  NO   OCC          E(Eh)            E(eV)
   0   2.0000     -15.403958      -419.1630
   1   2.0000      -4.863483      -132.3421
   2   2.0000      -4.862996      -132.3288
   3   2.0000      -4.862996      -132.3288
   4   2.0000      -4.858996      -132.2200
   5   2.0000      -2.961473       -80.5858
   6   2.0000      -2.954843       -80.4054
   7   2.0000      -2.954843       -80.4054
   8   2.0000      -2.952788       -80.3494
   9   2.0000      -2.950875       -80.2974
  10   2.0000      -2.950872       -80.2973
  11   2.0000      -2.948169       -80.2238
  12   2.0000      -2.947994       -80.2190
  13   2.0000      -2.947993       -80.2190
  14   2.0000      -2.946564       -80.1801
  15   2.0000      -2.944559       -80.1255
  16   2.0000      -2.944558       -80.1255
  17   2.0000      -1.336538       -36.3690
  18   2.0000      -0.870893       -23.6982
  19   2.0000      -0.864228       -23.5168
  20   2.0000      -0.864228       -23.5168
  21   2.0000      -0.830205       -22.5910
  22   2.0000      -0.826017       -22.4771
  23   2.0000      -0.826016       -22.4770
  24   2.0000      -0.810847       -22.0643
  25   2.0000      -0.810847       -22.0643
  26   2.0000      -0.791328       -21.5331
  27   2.0000      -0.784889       -21.3579
  28   2.0000      -0.784887       -21.3579
  29   2.0000      -0.749401       -20.3922
  30   2.0000      -0.748780       -20.3753
  31   2.0000      -0.748280       -20.3617
  32   2.0000      -0.748278       -20.3617
  33   2.0000      -0.746293       -20.3077
  34   2.0000      -0.746293       -20.3077
  35   2.0000      -0.745333       -20.2815
  36   2.0000      -0.745330       -20.2815
  37   2.0000      -0.723970       -19.7002
  38   2.0000      -0.707347       -19.2479
  39   2.0000      -0.707346       -19.2479
  40   2.0000      -0.707064       -19.2402
  41   2.0000      -0.656744       -17.8709
  42   0.0000      -0.379178       -10.3180
  43   0.0000      -0.379177       -10.3179
  44   0.0000      -0.367259        -9.9936
  45   0.0000      -0.257083        -6.9956
  46   0.0000      -0.242749        -6.6055

MULLIKEN ATOMIC CHARGES
-----------------------
   0 Au:    0.490325
   1 Au:    0.490371
   2 Au:    0.490389
   3 Au:    0.422676
   4 N :   -0.460695
   5 H :    0.188999
   6 H :    0.188999
   7 H :    0.188936
Sum of atomic charges:    2.0000000

LOEWDIN ATOMIC CHARGES
----------------------
   0 Au:    0.478903
   1 Au:    0.478908
   2 Au:    0.478908
   3 Au:    0.479663
   4 N :    0.401836
   5 H :   -0.106072
   6 H :   -0.106072
   7 H :   -0.106075

  Mayer bond orders larger than 0.100000
B(  0-Au,  1-Au) :   0.3690 B(  0-Au,  2-Au) :   0.3690 B(  0-Au,  3-Au) :   0.3953
B(  1-Au,  2-Au) :   0.3690 B(  1-Au,  3-Au) :   0.3953 B(  2-Au,  3-Au) :   0.3953
B(  4-N ,  5-H ) :   1.0078 B(  4-N ,  6-H ) :   1.0078 B(  4-N ,  7-H ) :   1.0078

MP2 TOTAL ENERGY:     -598.056806195 Eh
Dispersion correction           -0.029223488
FINAL SINGLE POINT ENERGY      -598.086029683335

DIPOLE MOMENT
-------------
                                X             Y             Z
Electronic contribution:     -0.00000      -0.00000      51.96954
Nuclear contribution   :      0.00000       0.00000     -53.58194
                        -----------------------------------------
Total Dipole Moment    :     -0.00000       0.00000      -1.61240
                        -----------------------------------------
Magnitude (a.u.)       :      1.61240
Magnitude (Debye)      :      4.09840

Rotational constants in cm-1:     0.011879     0.010264     0.010264
Rotational constants in MHz :   356.111583   307.700803   307.700796

                             ****ORCA TERMINATED NORMALLY****
TOTAL RUN TIME: 0 days 0 hours 0 minutes 17 seconds 30 msec
