                         Program Version 4.2.0 -  RELEASE  -
|  1> #
|  2> # Cu01N0_F ri-DSD-BLYP/2013-D3BJ/Def2-TZVPPD
|  3> #
|  4> ! rijk ri-dsd-blyp/2013 d3bj def2-tzvppd def2/jk def2-tzvppd/c grid4 nofinalgrid
|  5>
|  6> *xyz 0 1
|  7> Cu       0.000000    0.000000    0.412716
|  8> F        0.000000    0.000000   -1.329863
|  9> *
| 10>
| 11> %maxcore 5000
| 12>
| 13> %pal
| 14> nprocs = 24
| 15> end
| 16>
| 17>
| 18>                          ****END OF INPUT****

CARTESIAN COORDINATES (ANGSTROEM)
---------------------------------
  Cu     0.000000    0.000000    0.412716
  F      0.000000    0.000000   -1.329863

 Total Charge           Charge          ....    0
 Multiplicity           Mult            ....    1
 Number of Electrons    NEL             ....   38
 Basis Dimension        Dim             ....  107

ORBITAL ENERGIES
----------------

  NO   OCC          E(Eh)            E(eV)
   0   2.0000    -326.747958     -8891.2640
   1   2.0000     -40.121698     -1091.7669
   2   2.0000     -35.068052      -954.2502
   3   2.0000     -35.068052      -954.2502
   4   2.0000     -35.064486      -954.1532
   5   2.0000     -25.578962      -696.0389
   6   2.0000      -4.784169      -130.1839
   7   2.0000      -3.163657       -86.0875
   8   2.0000      -3.161877       -86.0391
   9   2.0000      -3.161877       -86.0391
  10   2.0000      -1.279026       -34.8041
  11   2.0000      -0.505674       -13.7601
  12   2.0000      -0.483301       -13.1513
  13   2.0000      -0.483301       -13.1513
  14   2.0000      -0.446019       -12.1368
  15   2.0000      -0.446019       -12.1368
  16   2.0000      -0.400177       -10.8894
  17   2.0000      -0.400177       -10.8894
  18   2.0000      -0.375010       -10.2045
  19   0.0000      -0.047622        -1.2959
  20   0.0000       0.035522         0.9666
  21   0.0000       0.035522         0.9666
  22   0.0000       0.069272         1.8850
  23   0.0000       0.117543         3.1985

MULLIKEN ATOMIC CHARGES
-----------------------
   0 Cu:    0.787246
   1 F :   -0.787246
Sum of atomic charges:   -0.0000000

LOEWDIN ATOMIC CHARGES
----------------------
   0 Cu:    0.591034
   1 F :   -0.591034

  Mayer bond orders larger than 0.100000
B(  0-Cu,  1-F ) :   0.4610

MP2 TOTAL ENERGY:    -1739.992644938 Eh
Dispersion correction           -0.000646110
FINAL SINGLE POINT ENERGY     -1739.993291048204

DIPOLE MOMENT
-------------
                                X             Y             Z
Electronic contribution:     -0.00000       0.00000       3.17444
Nuclear contribution   :      0.00000       0.00000      -0.83805
                        -----------------------------------------
Total Dipole Moment    :     -0.00000       0.00000       2.33640
                        -----------------------------------------
Magnitude (a.u.)       :      2.33640
Magnitude (Debye)      :      5.93865

Rotational constants in cm-1:     0.000000     0.379573     0.379573
Rotational constants in MHz :     0.000000 11379.305818 11379.305818

                             ****ORCA TERMINATED NORMALLY****
TOTAL RUN TIME: 0 days 0 hours 0 minutes 4 seconds 480 msec
