                         Program Version 4.2.0 -  RELEASE  -
|  1> #
|  2> # Cu01N0_H ri-DSD-BLYP/2013-D3BJ/Def2-TZVPPD
|  3> #
|  4> ! rijk ri-dsd-blyp/2013 d3bj def2-tzvppd def2/jk def2-tzvppd/c grid4 nofinalgrid
|  5>
|  6> *xyz 0 1
|  7> Cu       0.000000    0.000000    0.048513
|  8> H        0.000000    0.000000   -1.406870
|  9> *
| 10>
| 11> %maxcore 5000
| 12>
| 13> %pal
| 14> nprocs = 24
| 15> end
| 16>
| 17>
| 18>                          ****END OF INPUT****

CARTESIAN COORDINATES (ANGSTROEM)
---------------------------------
  Cu     0.000000    0.000000    0.048513
  H      0.000000    0.000000   -1.406870

 Total Charge           Charge          ....    0
 Multiplicity           Mult            ....    1
 Number of Electrons    NEL             ....   30
 Basis Dimension        Dim             ....   84

ORBITAL ENERGIES
----------------

  NO   OCC          E(Eh)            E(eV)
   0   2.0000    -326.734436     -8890.8960
   1   2.0000     -40.111127     -1091.4792
   2   2.0000     -35.055598      -953.9113
   3   2.0000     -35.055598      -953.9113
   4   2.0000     -35.055522      -953.9092
   5   2.0000      -4.767882      -129.7407
   6   2.0000      -3.147940       -85.6598
   7   2.0000      -3.142140       -85.5020
   8   2.0000      -3.142140       -85.5020
   9   2.0000      -0.448357       -12.2004
  10   2.0000      -0.428588       -11.6625
  11   2.0000      -0.428588       -11.6625
  12   2.0000      -0.424295       -11.5457
  13   2.0000      -0.424295       -11.5457
  14   2.0000      -0.305992        -8.3265
  15   0.0000      -0.018751        -0.5103
  16   0.0000       0.034206         0.9308
  17   0.0000       0.034206         0.9308
  18   0.0000       0.099195         2.6992
  19   0.0000       0.119704         3.2573

MULLIKEN ATOMIC CHARGES
-----------------------
   0 Cu:   -0.020862
   1 H :    0.020862
Sum of atomic charges:   -0.0000000

LOEWDIN ATOMIC CHARGES
----------------------
   0 Cu:    0.264016
   1 H :   -0.264016

  Mayer bond orders larger than 0.100000
B(  0-Cu,  1-H ) :   1.0110

MP2 TOTAL ENERGY:    -1640.745690360 Eh
Dispersion correction           -0.000511075
FINAL SINGLE POINT ENERGY     -1640.746201435312

DIPOLE MOMENT
-------------
                                X             Y             Z
Electronic contribution:     -0.00000       0.00000       2.87370
Nuclear contribution   :      0.00000       0.00000      -1.46200
                        -----------------------------------------
Total Dipole Moment    :     -0.00000       0.00000       1.41170
                        -----------------------------------------
Magnitude (a.u.)       :      1.41170
Magnitude (Debye)      :      3.58825

Rotational constants in cm-1:     0.000000     8.020774     8.020774
Rotational constants in MHz :     0.000000 240456.758928 240456.758928

                             ****ORCA TERMINATED NORMALLY****
TOTAL RUN TIME: 0 days 0 hours 0 minutes 3 seconds 789 msec
