                         Program Version 4.2.0 -  RELEASE  -
|  1> #
|  2> # Cu02N0 ri-DSD-BLYP/2013-D3BJ/Def2-TZVPPD
|  3> #
|  4> ! rijk ri-dsd-blyp/2013 d3bj def2-tzvppd def2/jk def2-tzvppd/c grid4 nofinalgrid
|  5>
|  6> *xyz 0 1
|  7> Cu       0.000000    0.000000    1.107490
|  8> Cu       0.000000    0.000000   -1.107490
|  9> *
| 10>
| 11> %maxcore 5000
| 12>
| 13> %pal
| 14> nprocs = 24
| 15> end
| 16>
| 17>
| 18>                          ****END OF INPUT****

CARTESIAN COORDINATES (ANGSTROEM)
---------------------------------
  Cu     0.000000    0.000000    1.107490
  Cu     0.000000    0.000000   -1.107490

 Total Charge           Charge          ....    0
 Multiplicity           Mult            ....    1
 Number of Electrons    NEL             ....   58
 Basis Dimension        Dim             ....  134

ORBITAL ENERGIES
----------------

  NO   OCC          E(Eh)            E(eV)
   0   2.0000    -326.704152     -8890.0719
   1   2.0000    -326.704145     -8890.0717
   2   2.0000     -40.078003     -1090.5779
   3   2.0000     -40.077980     -1090.5773
   4   2.0000     -35.022875      -953.0209
   5   2.0000     -35.022864      -953.0206
   6   2.0000     -35.022782      -953.0184
   7   2.0000     -35.022782      -953.0184
   8   2.0000     -35.022775      -953.0182
   9   2.0000     -35.022775      -953.0182
  10   2.0000      -4.737046      -128.9016
  11   2.0000      -4.736254      -128.8800
  12   2.0000      -3.119183       -84.8773
  13   2.0000      -3.112931       -84.7072
  14   2.0000      -3.112931       -84.7072
  15   2.0000      -3.112508       -84.6957
  16   2.0000      -3.112381       -84.6922
  17   2.0000      -3.112381       -84.6922
  18   2.0000      -0.428224       -11.6526
  19   2.0000      -0.416344       -11.3293
  20   2.0000      -0.416344       -11.3293
  21   2.0000      -0.399170       -10.8620
  22   2.0000      -0.399168       -10.8619
  23   2.0000      -0.391431       -10.6514
  24   2.0000      -0.391428       -10.6513
  25   2.0000      -0.378141       -10.2897
  26   2.0000      -0.378141       -10.2897
  27   2.0000      -0.370495       -10.0817
  28   2.0000      -0.231165        -6.2903
  29   0.0000      -0.020250        -0.5510
  30   0.0000       0.022183         0.6036
  31   0.0000       0.022183         0.6036
  32   0.0000       0.045371         1.2346
  33   0.0000       0.075101         2.0436

MULLIKEN ATOMIC CHARGES
-----------------------
   0 Cu:    0.000012
   1 Cu:   -0.000012
Sum of atomic charges:   -0.0000000

LOEWDIN ATOMIC CHARGES
----------------------
   0 Cu:    0.000000
   1 Cu:   -0.000000

  Mayer bond orders larger than 0.100000
B(  0-Cu,  1-Cu) :   1.0414

MP2 TOTAL ENERGY:    -3280.361766540 Eh
Dispersion correction           -0.003360608
FINAL SINGLE POINT ENERGY     -3280.365127147575

DIPOLE MOMENT
-------------
                                X             Y             Z
Electronic contribution:      0.00000      -0.00000      -0.00000
Nuclear contribution   :      0.00000       0.00000       0.00000
                        -----------------------------------------
Total Dipole Moment    :      0.00000      -0.00000      -0.00000
                        -----------------------------------------
Magnitude (a.u.)       :      0.00000
Magnitude (Debye)      :      0.00000

Rotational constants in cm-1:     0.000000     0.108136     0.108136
Rotational constants in MHz :     0.000000  3241.846344  3241.846344

                             ****ORCA TERMINATED NORMALLY****
TOTAL RUN TIME: 0 days 0 hours 0 minutes 5 seconds 521 msec
