                         Program Version 4.2.0 -  RELEASE  -
|  1> #
|  2> # Cu03C1_LIN ri-DSD-BLYP/2013-D3BJ/Def2-TZVPPD
|  3> #
|  4> ! rijk ri-dsd-blyp/2013 d3bj def2-tzvppd def2/jk def2-tzvppd/c grid4 nofinalgrid
|  5>
|  6> *xyz 1 1
|  7> Cu       0.000000    0.000000    0.000000
|  8> Cu       0.000000    0.000000    2.337165
|  9> Cu       0.000000    0.000000   -2.337165
| 10> *
| 11>
| 12> %maxcore 5000
| 13>
| 14> %pal
| 15> nprocs = 24
| 16> end
| 17>
| 18>
| 19>                          ****END OF INPUT****

CARTESIAN COORDINATES (ANGSTROEM)
---------------------------------
  Cu     0.000000    0.000000    0.000000
  Cu     0.000000    0.000000    2.337165
  Cu     0.000000    0.000000   -2.337165

 Total Charge           Charge          ....    1
 Multiplicity           Mult            ....    1
 Number of Electrons    NEL             ....   86
 Basis Dimension        Dim             ....  201

ORBITAL ENERGIES
----------------

  NO   OCC          E(Eh)            E(eV)
   0   2.0000    -326.930361     -8896.2274
   1   2.0000    -326.930358     -8896.2273
   2   2.0000    -326.883463     -8894.9513
   3   2.0000     -40.299135     -1096.5952
   4   2.0000     -40.299125     -1096.5949
   5   2.0000     -40.258556     -1095.4910
   6   2.0000     -35.245123      -959.0685
   7   2.0000     -35.245121      -959.0685
   8   2.0000     -35.244874      -959.0618
   9   2.0000     -35.244874      -959.0618
  10   2.0000     -35.244873      -959.0617
  11   2.0000     -35.244873      -959.0617
  12   2.0000     -35.203629      -957.9394
  13   2.0000     -35.202737      -957.9152
  14   2.0000     -35.202737      -957.9152
  15   2.0000      -4.960949      -134.9943
  16   2.0000      -4.960934      -134.9939
  17   2.0000      -4.916252      -133.7780
  18   2.0000      -3.341716       -90.9327
  19   2.0000      -3.341554       -90.9283
  20   2.0000      -3.339614       -90.8755
  21   2.0000      -3.339614       -90.8755
  22   2.0000      -3.339606       -90.8753
  23   2.0000      -3.339606       -90.8753
  24   2.0000      -3.296484       -89.7019
  25   2.0000      -3.290393       -89.5362
  26   2.0000      -3.290393       -89.5362
  27   2.0000      -0.645473       -17.5642
  28   2.0000      -0.631929       -17.1957
  29   2.0000      -0.631929       -17.1957
  30   2.0000      -0.625871       -17.0308
  31   2.0000      -0.625391       -17.0178
  32   2.0000      -0.625391       -17.0178
  33   2.0000      -0.623630       -16.9698
  34   2.0000      -0.623626       -16.9697
  35   2.0000      -0.623323       -16.9615
  36   2.0000      -0.623319       -16.9614
  37   2.0000      -0.571950       -15.5635
  38   2.0000      -0.571944       -15.5634
  39   2.0000      -0.568655       -15.4739
  40   2.0000      -0.568655       -15.4739
  41   2.0000      -0.563539       -15.3347
  42   2.0000      -0.418055       -11.3758
  43   0.0000      -0.249054        -6.7771
  44   0.0000      -0.152454        -4.1485
  45   0.0000      -0.136469        -3.7135
  46   0.0000      -0.136469        -3.7135
  47   0.0000      -0.093678        -2.5491

MULLIKEN ATOMIC CHARGES
-----------------------
   0 Cu:   -0.217062
   1 Cu:    0.608532
   2 Cu:    0.608530
Sum of atomic charges:    1.0000000

LOEWDIN ATOMIC CHARGES
----------------------
   0 Cu:    0.157065
   1 Cu:    0.421467
   2 Cu:    0.421467

  Mayer bond orders larger than 0.100000
B(  0-Cu,  1-Cu) :   0.4962 B(  0-Cu,  2-Cu) :   0.4962 B(  1-Cu,  2-Cu) :   0.1702

MP2 TOTAL ENERGY:    -4920.283779424 Eh
Dispersion correction           -0.006469753
FINAL SINGLE POINT ENERGY     -4920.290249177120

DIPOLE MOMENT
-------------
                                X             Y             Z
Electronic contribution:      0.00000       0.00000       0.00000
Nuclear contribution   :      0.00000       0.00000       0.00000
                        -----------------------------------------
Total Dipole Moment    :      0.00000       0.00000       0.00000
                        -----------------------------------------
Magnitude (a.u.)       :      0.00000
Magnitude (Debye)      :      0.00000

Rotational constants in cm-1:     0.000000     0.024281     0.024281
Rotational constants in MHz :     0.000000   727.936180   727.936180

                             ****ORCA TERMINATED NORMALLY****
TOTAL RUN TIME: 0 days 0 hours 0 minutes 8 seconds 93 msec
