                         Program Version 4.2.0 -  RELEASE  -
|  1> #
|  2> # Cu03N0_LIN ri-DSD-BLYP/2013-D3BJ/Def2-TZVPPD
|  3> #
|  4> ! rijk ri-dsd-blyp/2013 d3bj def2-tzvppd def2/jk def2-tzvppd/c grid4 nofinalgrid
|  5>
|  6> *xyz 0 2
|  7> Cu       0.000000    0.000000    0.000000
|  8> Cu       0.000000    0.000000    2.291099
|  9> Cu       0.000000    0.000000   -2.291099
| 10> *
| 11>
| 12> %maxcore 5000
| 13>
| 14> %pal
| 15> nprocs = 24
| 16> end
| 17>
| 18>
| 19>                          ****END OF INPUT****

CARTESIAN COORDINATES (ANGSTROEM)
---------------------------------
  Cu     0.000000    0.000000    0.000000
  Cu     0.000000    0.000000    2.291099
  Cu     0.000000    0.000000   -2.291099

 Total Charge           Charge          ....    0
 Multiplicity           Mult            ....    2
 Number of Electrons    NEL             ....   87
 Basis Dimension        Dim             ....  201

ORBITAL ENERGIES
----------------
                 SPIN UP ORBITALS
  NO   OCC          E(Eh)            E(eV)
   0   1.0000    -326.717504     -8890.4353
   1   1.0000    -326.717501     -8890.4352
   2   1.0000    -326.702015     -8890.0138
   3   1.0000     -40.089894     -1090.9015
   4   1.0000     -40.089883     -1090.9012
   5   1.0000     -40.077222     -1090.5567
   6   1.0000     -35.034587      -953.3396
   7   1.0000     -35.034585      -953.3395
   8   1.0000     -35.034259      -953.3307
   9   1.0000     -35.034259      -953.3307
  10   1.0000     -35.034257      -953.3306
  11   1.0000     -35.034257      -953.3306
  12   1.0000     -35.022435      -953.0089
  13   1.0000     -35.021889      -952.9941
  14   1.0000     -35.021889      -952.9941
  15   1.0000      -4.749444      -129.2389
  16   1.0000      -4.749438      -129.2388
  17   1.0000      -4.734301      -128.8269
  18   1.0000      -3.128031       -85.1181
  19   1.0000      -3.127104       -85.0928
  20   1.0000      -3.124295       -85.0164
  21   1.0000      -3.124295       -85.0164
  22   1.0000      -3.124295       -85.0164
  23   1.0000      -3.124295       -85.0164
  24   1.0000      -3.113990       -84.7360
  25   1.0000      -3.109584       -84.6161
  26   1.0000      -3.109584       -84.6161
  27   1.0000      -0.443994       -12.0817
  28   1.0000      -0.426456       -11.6045
  29   1.0000      -0.426456       -11.6045
  30   1.0000      -0.410692       -11.1755
  31   1.0000      -0.410692       -11.1755
  32   1.0000      -0.410074       -11.1587
  33   1.0000      -0.408944       -11.1279
  34   1.0000      -0.408941       -11.1279
  35   1.0000      -0.407663       -11.0931
  36   1.0000      -0.407659       -11.0930
  37   1.0000      -0.390746       -10.6327
  38   1.0000      -0.390741       -10.6326
  39   1.0000      -0.376024       -10.2321
  40   1.0000      -0.376024       -10.2321
  41   1.0000      -0.368366       -10.0238
  42   1.0000      -0.267483        -7.2786
  43   1.0000      -0.215674        -5.8688
  44   0.0000      -0.009741        -0.2651
  45   0.0000       0.009131         0.2485
  46   0.0000       0.009131         0.2485
  47   0.0000       0.032879         0.8947
  48   0.0000       0.043218         1.1760

                 SPIN DOWN ORBITALS
  NO   OCC          E(Eh)            E(eV)
   0   1.0000    -326.716341     -8890.4036
   1   1.0000    -326.716338     -8890.4035
   2   1.0000    -326.702159     -8890.0177
   3   1.0000     -40.089906     -1090.9018
   4   1.0000     -40.089895     -1090.9015
   5   1.0000     -40.077968     -1090.5769
   6   1.0000     -35.035691      -953.3696
   7   1.0000     -35.035689      -953.3696
   8   1.0000     -35.035154      -953.3550
   9   1.0000     -35.035154      -953.3550
  10   1.0000     -35.035152      -953.3550
  11   1.0000     -35.035152      -953.3550
  12   1.0000     -35.022548      -953.0120
  13   1.0000     -35.022176      -953.0019
  14   1.0000     -35.022176      -953.0019
  15   1.0000      -4.748072      -129.2016
  16   1.0000      -4.748069      -129.2015
  17   1.0000      -4.735971      -128.8723
  18   1.0000      -3.129317       -85.1530
  19   1.0000      -3.128546       -85.1321
  20   1.0000      -3.126114       -85.0659
  21   1.0000      -3.126114       -85.0659
  22   1.0000      -3.126104       -85.0656
  23   1.0000      -3.126104       -85.0656
  24   1.0000      -3.113823       -84.7314
  25   1.0000      -3.110902       -84.6520
  26   1.0000      -3.110902       -84.6520
  27   1.0000      -0.442823       -12.0498
  28   1.0000      -0.426179       -11.5969
  29   1.0000      -0.426179       -11.5969
  30   1.0000      -0.411706       -11.2031
  31   1.0000      -0.410893       -11.1810
  32   1.0000      -0.410893       -11.1810
  33   1.0000      -0.409451       -11.1417
  34   1.0000      -0.409447       -11.1416
  35   1.0000      -0.408236       -11.1087
  36   1.0000      -0.408233       -11.1086
  37   1.0000      -0.391715       -10.6591
  38   1.0000      -0.391710       -10.6590
  39   1.0000      -0.378535       -10.3005
  40   1.0000      -0.378535       -10.3005
  41   1.0000      -0.368645       -10.0314
  42   1.0000      -0.231359        -6.2956
  43   0.0000      -0.056705        -1.5430
  44   0.0000       0.008226         0.2238
  45   0.0000       0.016333         0.4445
  46   0.0000       0.016333         0.4445
  47   0.0000       0.043711         1.1894

MULLIKEN ATOMIC CHARGES AND SPIN POPULATIONS
--------------------------------------------
   0 Cu:   -0.256155   -0.262402
   1 Cu:    0.128081    0.631217
   2 Cu:    0.128074    0.631186
Sum of atomic charges         :   -0.0000000

LOEWDIN ATOMIC CHARGES AND SPIN POPULATIONS
-------------------------------------------
   0 Cu:   -0.245984    0.389098
   1 Cu:    0.122992    0.305451
   2 Cu:    0.122992    0.305451

  Mayer bond orders larger than 0.100000
B(  0-Cu,  1-Cu) :   0.5278 B(  0-Cu,  2-Cu) :   0.5278

MP2 TOTAL ENERGY:    -4920.536437734 Eh
Dispersion correction           -0.006648069
FINAL SINGLE POINT ENERGY     -4920.543085803827

DIPOLE MOMENT
-------------
                                X             Y             Z
Electronic contribution:      0.00000       0.00000      -0.00000
Nuclear contribution   :      0.00000       0.00000       0.00000
                        -----------------------------------------
Total Dipole Moment    :      0.00000       0.00000      -0.00000
                        -----------------------------------------
Magnitude (a.u.)       :      0.00000
Magnitude (Debye)      :      0.00000

Rotational constants in cm-1:     0.000000     0.025268     0.025268
Rotational constants in MHz :     0.000000   757.502973   757.502973

                             ****ORCA TERMINATED NORMALLY****
TOTAL RUN TIME: 0 days 0 hours 0 minutes 12 seconds 848 msec
