                         Program Version 4.2.0 -  RELEASE  -
|  1> #
|  2> # Cu03N0_D3H ri-DSD-BLYP/2013-D3BJ/Def2-TZVPPD
|  3> #
|  4> ! rijk ri-dsd-blyp/2013 d3bj def2-tzvppd def2/jk def2-tzvppd/c grid4 nofinalgrid
|  5>
|  6> *xyz 0 2
|  7> Cu       0.000000    1.346828   -0.000000
|  8> Cu       1.166387   -0.673414   -0.000000
|  9> Cu      -1.166387   -0.673414   -0.000000
| 10> *
| 11>
| 12> %maxcore 5000
| 13>
| 14> %pal
| 15> nprocs = 24
| 16> end
| 17>
| 18>
| 19>                          ****END OF INPUT****

CARTESIAN COORDINATES (ANGSTROEM)
---------------------------------
  Cu     0.000000    1.346828   -0.000000
  Cu     1.166387   -0.673414   -0.000000
  Cu    -1.166387   -0.673414   -0.000000

 Total Charge           Charge          ....    0
 Multiplicity           Mult            ....    2
 Number of Electrons    NEL             ....   87
 Basis Dimension        Dim             ....  201

ORBITAL ENERGIES
----------------
                 SPIN UP ORBITALS
  NO   OCC          E(Eh)            E(eV)
   0   1.0000    -326.727178     -8890.6985
   1   1.0000    -326.727172     -8890.6984
   2   1.0000    -326.707985     -8890.1762
   3   1.0000     -40.101079     -1091.2058
   4   1.0000     -40.101062     -1091.2054
   5   1.0000     -40.083879     -1090.7378
   6   1.0000     -35.046156      -953.6544
   7   1.0000     -35.046150      -953.6542
   8   1.0000     -35.045859      -953.6463
   9   1.0000     -35.045855      -953.6462
  10   1.0000     -35.045853      -953.6461
  11   1.0000     -35.045844      -953.6459
  12   1.0000     -35.028327      -953.1692
  13   1.0000     -35.028283      -953.1680
  14   1.0000     -35.027376      -953.1433
  15   1.0000      -4.759849      -129.5221
  16   1.0000      -4.759418      -129.5104
  17   1.0000      -4.741359      -129.0189
  18   1.0000      -3.140519       -85.4579
  19   1.0000      -3.136779       -85.3561
  20   1.0000      -3.136694       -85.3538
  21   1.0000      -3.135987       -85.3345
  22   1.0000      -3.135715       -85.3271
  23   1.0000      -3.135389       -85.3183
  24   1.0000      -3.117372       -84.8280
  25   1.0000      -3.117240       -84.8244
  26   1.0000      -3.114870       -84.7599
  27   1.0000      -0.456230       -12.4147
  28   1.0000      -0.442699       -12.0465
  29   1.0000      -0.439947       -11.9716
  30   1.0000      -0.434458       -11.8222
  31   1.0000      -0.427204       -11.6248
  32   1.0000      -0.426393       -11.6027
  33   1.0000      -0.420759       -11.4494
  34   1.0000      -0.408211       -11.1080
  35   1.0000      -0.404941       -11.0190
  36   1.0000      -0.400730       -10.9044
  37   1.0000      -0.393873       -10.7178
  38   1.0000      -0.392839       -10.6897
  39   1.0000      -0.388469       -10.5708
  40   1.0000      -0.387707       -10.5500
  41   1.0000      -0.374402       -10.1880
  42   1.0000      -0.295494        -8.0408
  43   1.0000      -0.161423        -4.3925
  44   0.0000      -0.040221        -1.0945
  45   0.0000       0.002397         0.0652
  46   0.0000       0.021160         0.5758
  47   0.0000       0.042341         1.1522
  48   0.0000       0.042473         1.1557

                 SPIN DOWN ORBITALS
  NO   OCC          E(Eh)            E(eV)
   0   1.0000    -326.726943     -8890.6921
   1   1.0000    -326.726937     -8890.6920
   2   1.0000    -326.707156     -8890.1537
   3   1.0000     -40.101180     -1091.2086
   4   1.0000     -40.101163     -1091.2081
   5   1.0000     -40.083308     -1090.7223
   6   1.0000     -35.046170      -953.6548
   7   1.0000     -35.046158      -953.6544
   8   1.0000     -35.046112      -953.6532
   9   1.0000     -35.046106      -953.6530
  10   1.0000     -35.046024      -953.6508
  11   1.0000     -35.046018      -953.6506
  12   1.0000     -35.028500      -953.1739
  13   1.0000     -35.028131      -953.1639
  14   1.0000     -35.027802      -953.1550
  15   1.0000      -4.759765      -129.5198
  16   1.0000      -4.759337      -129.5082
  17   1.0000      -4.739195      -128.9601
  18   1.0000      -3.141001       -85.4710
  19   1.0000      -3.137978       -85.3887
  20   1.0000      -3.136662       -85.3529
  21   1.0000      -3.136053       -85.3363
  22   1.0000      -3.135739       -85.3278
  23   1.0000      -3.135142       -85.3115
  24   1.0000      -3.117986       -84.8447
  25   1.0000      -3.116251       -84.7975
  26   1.0000      -3.114676       -84.7546
  27   1.0000      -0.456803       -12.4302
  28   1.0000      -0.441736       -12.0203
  29   1.0000      -0.440760       -11.9937
  30   1.0000      -0.433045       -11.7838
  31   1.0000      -0.426404       -11.6030
  32   1.0000      -0.426287       -11.5998
  33   1.0000      -0.421264       -11.4632
  34   1.0000      -0.408577       -11.1180
  35   1.0000      -0.405447       -11.0328
  36   1.0000      -0.401910       -10.9365
  37   1.0000      -0.393343       -10.7034
  38   1.0000      -0.392443       -10.6789
  39   1.0000      -0.387638       -10.5482
  40   1.0000      -0.385486       -10.4896
  41   1.0000      -0.371101       -10.0982
  42   1.0000      -0.277981        -7.5642
  43   0.0000      -0.033201        -0.9034
  44   0.0000      -0.010660        -0.2901
  45   0.0000       0.007995         0.2176
  46   0.0000       0.029972         0.8156
  47   0.0000       0.055341         1.5059

MULLIKEN ATOMIC CHARGES AND SPIN POPULATIONS
--------------------------------------------
   0 Cu:   -0.117319    0.556609
   1 Cu:    0.058679    0.221694
   2 Cu:    0.058640    0.221697
Sum of atomic charges         :   -0.0000000

LOEWDIN ATOMIC CHARGES AND SPIN POPULATIONS
-------------------------------------------
   0 Cu:   -0.030186    0.384137
   1 Cu:    0.015094    0.307931
   2 Cu:    0.015093    0.307932

  Mayer bond orders larger than 0.100000
B(  0-Cu,  1-Cu) :   0.4889 B(  0-Cu,  2-Cu) :   0.4889 B(  1-Cu,  2-Cu) :   0.7349

MP2 TOTAL ENERGY:    -4920.543244848 Eh
Dispersion correction           -0.009312655
FINAL SINGLE POINT ENERGY     -4920.552557503373

DIPOLE MOMENT
-------------
                                X             Y             Z
Electronic contribution:      0.00000      -0.35740      -0.00000
Nuclear contribution   :      0.00000       0.00000      -0.00000
                        -----------------------------------------
Total Dipole Moment    :      0.00000      -0.35740      -0.00000
                        -----------------------------------------
Magnitude (a.u.)       :      0.35740
Magnitude (Debye)      :      0.90844

Rotational constants in cm-1:     0.097491     0.097491     0.048746
Rotational constants in MHz :  2922.716641  2922.715325  1461.357991

                             ****ORCA TERMINATED NORMALLY****
TOTAL RUN TIME: 0 days 0 hours 0 minutes 11 seconds 333 msec
