                         Program Version 4.2.0 -  RELEASE  -
|  1> #
|  2> # Cu03C1_D3H ri-DSD-BLYP/2013-D3BJ/Def2-TZVPPD
|  3> #
|  4> ! rijk ri-dsd-blyp/2013 d3bj def2-tzvppd def2/jk def2-tzvppd/c grid4 nofinalgrid
|  5>
|  6> *xyz 1 1
|  7> Cu       0.000000    1.349261   -0.000000
|  8> Cu       1.168494   -0.674630    0.000000
|  9> Cu      -1.168494   -0.674630   -0.000000
| 10> *
| 11>
| 12> %maxcore 5000
| 13>
| 14> %pal
| 15> nprocs = 24
| 16> end
| 17>
| 18>
| 19>                          ****END OF INPUT****

CARTESIAN COORDINATES (ANGSTROEM)
---------------------------------
  Cu     0.000000    1.349261   -0.000000
  Cu     1.168494   -0.674630    0.000000
  Cu    -1.168494   -0.674630   -0.000000

 Total Charge           Charge          ....    1
 Multiplicity           Mult            ....    1
 Number of Electrons    NEL             ....   86
 Basis Dimension        Dim             ....  201

ORBITAL ENERGIES
----------------

  NO   OCC          E(Eh)            E(eV)
   0   2.0000    -326.920364     -8895.9554
   1   2.0000    -326.920361     -8895.9553
   2   2.0000    -326.920350     -8895.9550
   3   2.0000     -40.293312     -1096.4368
   4   2.0000     -40.293307     -1096.4366
   5   2.0000     -40.293283     -1096.4360
   6   2.0000     -35.238915      -958.8996
   7   2.0000     -35.238902      -958.8993
   8   2.0000     -35.238895      -958.8991
   9   2.0000     -35.238114      -958.8778
  10   2.0000     -35.238113      -958.8778
  11   2.0000     -35.238109      -958.8777
  12   2.0000     -35.238109      -958.8777
  13   2.0000     -35.238098      -958.8774
  14   2.0000     -35.238096      -958.8774
  15   2.0000      -4.952962      -134.7770
  16   2.0000      -4.952338      -134.7600
  17   2.0000      -4.952335      -134.7599
  18   2.0000      -3.334580       -90.7385
  19   2.0000      -3.332134       -90.6720
  20   2.0000      -3.332132       -90.6719
  21   2.0000      -3.329371       -90.5968
  22   2.0000      -3.329041       -90.5878
  23   2.0000      -3.329041       -90.5878
  24   2.0000      -3.328816       -90.5817
  25   2.0000      -3.328347       -90.5689
  26   2.0000      -3.328345       -90.5689
  27   2.0000      -0.653707       -17.7883
  28   2.0000      -0.637240       -17.3402
  29   2.0000      -0.636955       -17.3324
  30   2.0000      -0.636949       -17.3323
  31   2.0000      -0.625228       -17.0133
  32   2.0000      -0.622170       -16.9301
  33   2.0000      -0.622162       -16.9299
  34   2.0000      -0.603648       -16.4261
  35   2.0000      -0.603646       -16.4261
  36   2.0000      -0.601504       -16.3678
  37   2.0000      -0.596837       -16.2408
  38   2.0000      -0.596816       -16.2402
  39   2.0000      -0.595325       -16.1996
  40   2.0000      -0.595309       -16.1992
  41   2.0000      -0.575940       -15.6721
  42   2.0000      -0.470976       -12.8159
  43   0.0000      -0.196219        -5.3394
  44   0.0000      -0.196219        -5.3394
  45   0.0000      -0.151868        -4.1325
  46   0.0000      -0.115222        -3.1354
  47   0.0000      -0.092938        -2.5290

MULLIKEN ATOMIC CHARGES
-----------------------
   0 Cu:    0.333312
   1 Cu:    0.333341
   2 Cu:    0.333347
Sum of atomic charges:    1.0000000

LOEWDIN ATOMIC CHARGES
----------------------
   0 Cu:    0.333337
   1 Cu:    0.333331
   2 Cu:    0.333331

  Mayer bond orders larger than 0.100000
B(  0-Cu,  1-Cu) :   0.4897 B(  0-Cu,  2-Cu) :   0.4897 B(  1-Cu,  2-Cu) :   0.4897

MP2 TOTAL ENERGY:    -4920.342617477 Eh
Dispersion correction           -0.009289565
FINAL SINGLE POINT ENERGY     -4920.351907041218

DIPOLE MOMENT
-------------
                                X             Y             Z
Electronic contribution:     -0.00000       0.00003      -0.00000
Nuclear contribution   :      0.00000       0.00000       0.00000
                        -----------------------------------------
Total Dipole Moment    :     -0.00000       0.00003      -0.00000
                        -----------------------------------------
Magnitude (a.u.)       :      0.00003
Magnitude (Debye)      :      0.00008

Rotational constants in cm-1:     0.097140     0.097140     0.048570
Rotational constants in MHz :  2912.185801  2912.185732  1456.092883

                             ****ORCA TERMINATED NORMALLY****
TOTAL RUN TIME: 0 days 0 hours 0 minutes 6 seconds 829 msec
