                         Program Version 4.2.0 -  RELEASE  -
|  1> #
|  2> # Cu04C2_NH3_F ri-DSD-BLYP/2013-D3BJ/Def2-TZVPPD
|  3> #
|  4> ! rijk ri-dsd-blyp/2013 d3bj def2-tzvppd def2/jk def2-tzvppd/c grid4 nofinalgrid
|  5>
|  6> *xyz 2 1
|  7> Cu       0.253817    1.375381    0.000000
|  8> Cu       0.253817   -0.687598    1.191098
|  9> Cu       0.253817   -0.687598   -1.191098
| 10> Cu      -1.745352    0.000159    0.000000
| 11> N        2.725949   -0.000959   -0.000000
| 12> H        3.150217   -0.936878   -0.000000
| 13> H        3.150637    0.466806   -0.810419
| 14> H        3.150637    0.466806    0.810419
| 15> *
| 16>
| 17> %maxcore 5000
| 18>
| 19> %pal
| 20> nprocs = 24
| 21> end
| 22>
| 23>
| 24>                          ****END OF INPUT****

CARTESIAN COORDINATES (ANGSTROEM)
---------------------------------
  Cu     0.253817    1.375381    0.000000
  Cu     0.253817   -0.687598    1.191098
  Cu     0.253817   -0.687598   -1.191098
  Cu    -1.745352    0.000159    0.000000
  N      2.725949   -0.000959   -0.000000
  H      3.150217   -0.936878   -0.000000
  H      3.150637    0.466806   -0.810419
  H      3.150637    0.466806    0.810419

 Total Charge           Charge          ....    2
 Multiplicity           Mult            ....    1
 Number of Electrons    NEL             ....  124
 Basis Dimension        Dim             ....  356

ORBITAL ENERGIES
----------------

  NO   OCC          E(Eh)            E(eV)
   0   2.0000    -327.093668     -8900.6712
   1   2.0000    -327.093661     -8900.6710
   2   2.0000    -327.093658     -8900.6709
   3   2.0000    -327.084698     -8900.4271
   4   2.0000     -40.465617     -1101.1254
   5   2.0000     -40.465610     -1101.1252
   6   2.0000     -40.465598     -1101.1249
   7   2.0000     -40.457737     -1100.9110
   8   2.0000     -35.411596      -963.5985
   9   2.0000     -35.411583      -963.5982
  10   2.0000     -35.411579      -963.5980
  11   2.0000     -35.410688      -963.5738
  12   2.0000     -35.410681      -963.5736
  13   2.0000     -35.410675      -963.5735
  14   2.0000     -35.410527      -963.5694
  15   2.0000     -35.410521      -963.5693
  16   2.0000     -35.410513      -963.5691
  17   2.0000     -35.402969      -963.3638
  18   2.0000     -35.402969      -963.3638
  19   2.0000     -35.402570      -963.3529
  20   2.0000     -15.443679      -420.2439
  21   2.0000      -5.125725      -139.4781
  22   2.0000      -5.125205      -139.4639
  23   2.0000      -5.125200      -139.4638
  24   2.0000      -5.116229      -139.2197
  25   2.0000      -3.507295       -95.4384
  26   2.0000      -3.505079       -95.3781
  27   2.0000      -3.505078       -95.3780
  28   2.0000      -3.502976       -95.3208
  29   2.0000      -3.502971       -95.3207
  30   2.0000      -3.502920       -95.3193
  31   2.0000      -3.502706       -95.3135
  32   2.0000      -3.501898       -95.2915
  33   2.0000      -3.501893       -95.2914
  34   2.0000      -3.494513       -95.0905
  35   2.0000      -3.493191       -95.0546
  36   2.0000      -3.493190       -95.0545
  37   2.0000      -1.375750       -37.4361
  38   2.0000      -0.900046       -24.4915
  39   2.0000      -0.900042       -24.4914
  40   2.0000      -0.838116       -22.8063
  41   2.0000      -0.822566       -22.3832
  42   2.0000      -0.812562       -22.1109
  43   2.0000      -0.812559       -22.1109
  44   2.0000      -0.804795       -21.8996
  45   2.0000      -0.804792       -21.8995
  46   2.0000      -0.799998       -21.7691
  47   2.0000      -0.792000       -21.5514
  48   2.0000      -0.791998       -21.5514
  49   2.0000      -0.776374       -21.1262
  50   2.0000      -0.776369       -21.1261
  51   2.0000      -0.776118       -21.1192
  52   2.0000      -0.772213       -21.0130
  53   2.0000      -0.772201       -21.0126
  54   2.0000      -0.771008       -20.9802
  55   2.0000      -0.768905       -20.9230
  56   2.0000      -0.768904       -20.9229
  57   2.0000      -0.750957       -20.4346
  58   2.0000      -0.747842       -20.3498
  59   2.0000      -0.747832       -20.3495
  60   2.0000      -0.746902       -20.3242
  61   2.0000      -0.646503       -17.5922
  62   0.0000      -0.354248        -9.6396
  63   0.0000      -0.354248        -9.6396
  64   0.0000      -0.327969        -8.9245
  65   0.0000      -0.264381        -7.1942
  66   0.0000      -0.236645        -6.4394

MULLIKEN ATOMIC CHARGES
-----------------------
   0 Cu:    0.497765
   1 Cu:    0.497878
   2 Cu:    0.497864
   3 Cu:    0.297356
   4 N :   -0.442233
   5 H :    0.217148
   6 H :    0.217113
   7 H :    0.217110
Sum of atomic charges:    2.0000000

LOEWDIN ATOMIC CHARGES
----------------------
   0 Cu:    0.421535
   1 Cu:    0.421451
   2 Cu:    0.421451
   3 Cu:    0.487033
   4 N :    0.470257
   5 H :   -0.073909
   6 H :   -0.073909
   7 H :   -0.073909

  Mayer bond orders larger than 0.100000
B(  0-Cu,  1-Cu) :   0.2862 B(  0-Cu,  2-Cu) :   0.2862 B(  0-Cu,  3-Cu) :   0.3570
B(  1-Cu,  2-Cu) :   0.2861 B(  1-Cu,  3-Cu) :   0.3568 B(  2-Cu,  3-Cu) :   0.3568
B(  4-N ,  5-H ) :   0.9971 B(  4-N ,  6-H ) :   0.9971 B(  4-N ,  7-H ) :   0.9971

MP2 TOTAL ENERGY:    -6616.702421798 Eh
Dispersion correction           -0.021735949
FINAL SINGLE POINT ENERGY     -6616.724157746731

DIPOLE MOMENT
-------------
                                X             Y             Z
Electronic contribution:    -11.58556       0.00411      -0.00000
Nuclear contribution   :     13.00779      -0.00451       0.00000
                        -----------------------------------------
Total Dipole Moment    :      1.42223      -0.00041      -0.00000
                        -----------------------------------------
Magnitude (a.u.)       :      1.42223
Magnitude (Debye)      :      3.61502

Rotational constants in cm-1:     0.046405     0.032369     0.032369
Rotational constants in MHz :  1391.178817   970.405392   970.384771

                             ****ORCA TERMINATED NORMALLY****
TOTAL RUN TIME: 0 days 0 hours 0 minutes 22 seconds 121 msec
