                         Program Version 4.2.0 -  RELEASE  -
|  1> #
|  2> # Cu04C2_H_F ri-DSD-BLYP/2013-D3BJ/Def2-TZVPPD
|  3> #
|  4> ! rijk ri-dsd-blyp/2013 d3bj def2-tzvppd def2/jk def2-tzvppd/c grid4 nofinalgrid
|  5>
|  6> *xyz 2 2
|  7> Cu      -0.000000    1.387730   -0.507533
|  8> Cu       1.201809   -0.693865   -0.507533
|  9> Cu      -1.201809   -0.693865   -0.507533
| 10> Cu       0.000000    0.000000    1.576640
| 11> H        0.000000    0.000000   -1.567185
| 12> *
| 13>
| 14> %maxcore 5000
| 15>
| 16> %pal
| 17> nprocs = 24
| 18> end
| 19>
| 20>
| 21>                          ****END OF INPUT****

CARTESIAN COORDINATES (ANGSTROEM)
---------------------------------
  Cu    -0.000000    1.387730   -0.507533
  Cu     1.201809   -0.693865   -0.507533
  Cu    -1.201809   -0.693865   -0.507533
  Cu     0.000000    0.000000    1.576640
  H      0.000000    0.000000   -1.567185

 Total Charge           Charge          ....    2
 Multiplicity           Mult            ....    2
 Number of Electrons    NEL             ....  115
 Basis Dimension        Dim             ....  285

ORBITAL ENERGIES
----------------
                 SPIN UP ORBITALS
  NO   OCC          E(Eh)            E(eV)
   0   1.0000    -327.143186     -8902.0187
   1   1.0000    -327.143185     -8902.0186
   2   1.0000    -327.143179     -8902.0185
   3   1.0000    -327.123138     -8901.4731
   4   1.0000     -40.516662     -1102.5144
   5   1.0000     -40.516661     -1102.5144
   6   1.0000     -40.516644     -1102.5139
   7   1.0000     -40.494268     -1101.9050
   8   1.0000     -35.462385      -964.9806
   9   1.0000     -35.462384      -964.9805
  10   1.0000     -35.462377      -964.9803
  11   1.0000     -35.461946      -964.9686
  12   1.0000     -35.461945      -964.9686
  13   1.0000     -35.461934      -964.9683
  14   1.0000     -35.461758      -964.9635
  15   1.0000     -35.461745      -964.9631
  16   1.0000     -35.461744      -964.9631
  17   1.0000     -35.439151      -964.3483
  18   1.0000     -35.439151      -964.3483
  19   1.0000     -35.439048      -964.3455
  20   1.0000      -5.177194      -140.8786
  21   1.0000      -5.176727      -140.8659
  22   1.0000      -5.176726      -140.8659
  23   1.0000      -5.153669      -140.2385
  24   1.0000      -3.559943       -96.8710
  25   1.0000      -3.556828       -96.7862
  26   1.0000      -3.556828       -96.7862
  27   1.0000      -3.556026       -96.7644
  28   1.0000      -3.555632       -96.7537
  29   1.0000      -3.555630       -96.7536
  30   1.0000      -3.553343       -96.6914
  31   1.0000      -3.553341       -96.6913
  32   1.0000      -3.552314       -96.6634
  33   1.0000      -3.530833       -96.0788
  34   1.0000      -3.529582       -96.0448
  35   1.0000      -3.529581       -96.0448
  36   1.0000      -0.944139       -25.6913
  37   1.0000      -0.885101       -24.0848
  38   1.0000      -0.859184       -23.3796
  39   1.0000      -0.859178       -23.3794
  40   1.0000      -0.853620       -23.2282
  41   1.0000      -0.853618       -23.2281
  42   1.0000      -0.849223       -23.1085
  43   1.0000      -0.837794       -22.7975
  44   1.0000      -0.837790       -22.7974
  45   1.0000      -0.828975       -22.5576
  46   1.0000      -0.828972       -22.5575
  47   1.0000      -0.826079       -22.4788
  48   1.0000      -0.822389       -22.3783
  49   1.0000      -0.822384       -22.3782
  50   1.0000      -0.818703       -22.2780
  51   1.0000      -0.809964       -22.0402
  52   1.0000      -0.809961       -22.0401
  53   1.0000      -0.801414       -21.8076
  54   1.0000      -0.794260       -21.6129
  55   1.0000      -0.794250       -21.6126
  56   1.0000      -0.790614       -21.5137
  57   1.0000      -0.633243       -17.2314
  58   0.0000      -0.391213       -10.6454
  59   0.0000      -0.391212       -10.6454
  60   0.0000      -0.310000        -8.4355
  61   0.0000      -0.290344        -7.9007
  62   0.0000      -0.264494        -7.1973

                 SPIN DOWN ORBITALS
  NO   OCC          E(Eh)            E(eV)
   0   1.0000    -327.142972     -8902.0128
   1   1.0000    -327.142971     -8902.0128
   2   1.0000    -327.142965     -8902.0127
   3   1.0000    -327.121964     -8901.4412
   4   1.0000     -40.514803     -1102.4638
   5   1.0000     -40.514802     -1102.4638
   6   1.0000     -40.514784     -1102.4633
   7   1.0000     -40.495086     -1101.9273
   8   1.0000     -35.461289      -964.9507
   9   1.0000     -35.461276      -964.9504
  10   1.0000     -35.461275      -964.9504
  11   1.0000     -35.460133      -964.9193
  12   1.0000     -35.460132      -964.9193
  13   1.0000     -35.460121      -964.9189
  14   1.0000     -35.459000      -964.8885
  15   1.0000     -35.459000      -964.8884
  16   1.0000     -35.458986      -964.8881
  17   1.0000     -35.440820      -964.3937
  18   1.0000     -35.440673      -964.3897
  19   1.0000     -35.440673      -964.3897
  20   1.0000      -5.173153      -140.7687
  21   1.0000      -5.172687      -140.7560
  22   1.0000      -5.172686      -140.7560
  23   1.0000      -5.153935      -140.2457
  24   1.0000      -3.553862       -96.7055
  25   1.0000      -3.553041       -96.6832
  26   1.0000      -3.553040       -96.6831
  27   1.0000      -3.551178       -96.6325
  28   1.0000      -3.549968       -96.5995
  29   1.0000      -3.549966       -96.5995
  30   1.0000      -3.548843       -96.5689
  31   1.0000      -3.548475       -96.5589
  32   1.0000      -3.548473       -96.5589
  33   1.0000      -3.534631       -96.1822
  34   1.0000      -3.532685       -96.1293
  35   1.0000      -3.532685       -96.1292
  36   1.0000      -0.911613       -24.8063
  37   1.0000      -0.874126       -23.7862
  38   1.0000      -0.857905       -23.3448
  39   1.0000      -0.857899       -23.3446
  40   1.0000      -0.848353       -23.0849
  41   1.0000      -0.848349       -23.0847
  42   1.0000      -0.845963       -23.0198
  43   1.0000      -0.836475       -22.7616
  44   1.0000      -0.836471       -22.7615
  45   1.0000      -0.825009       -22.4496
  46   1.0000      -0.821949       -22.3664
  47   1.0000      -0.821940       -22.3661
  48   1.0000      -0.813977       -22.1494
  49   1.0000      -0.811628       -22.0855
  50   1.0000      -0.811624       -22.0854
  51   1.0000      -0.809692       -22.0328
  52   1.0000      -0.809691       -22.0328
  53   1.0000      -0.799629       -21.7590
  54   1.0000      -0.791002       -21.5243
  55   1.0000      -0.790993       -21.5240
  56   1.0000      -0.763965       -20.7885
  57   0.0000      -0.428654       -11.6643
  58   0.0000      -0.378214       -10.2917
  59   0.0000      -0.378214       -10.2917
  60   0.0000      -0.296232        -8.0609
  61   0.0000      -0.276543        -7.5251

MULLIKEN ATOMIC CHARGES AND SPIN POPULATIONS
--------------------------------------------
   0 Cu:    0.492480    0.032612
   1 Cu:    0.492420    0.032584
   2 Cu:    0.492421    0.032593
   3 Cu:    0.414279    0.585963
   4 H :    0.108401    0.316248
Sum of atomic charges         :    2.0000000

LOEWDIN ATOMIC CHARGES AND SPIN POPULATIONS
-------------------------------------------
   0 Cu:    0.474377    0.214306
   1 Cu:    0.474374    0.214306
   2 Cu:    0.474374    0.214306
   3 Cu:    0.556670    0.199134
   4 H :    0.020205    0.157949

  Mayer bond orders larger than 0.100000
B(  0-Cu,  1-Cu) :   0.2907 B(  0-Cu,  2-Cu) :   0.2907 B(  0-Cu,  3-Cu) :   0.2114
B(  0-Cu,  4-H ) :   0.2441 B(  1-Cu,  2-Cu) :   0.2908 B(  1-Cu,  3-Cu) :   0.2114
B(  1-Cu,  4-H ) :   0.2441 B(  2-Cu,  3-Cu) :   0.2114 B(  2-Cu,  4-H ) :   0.2441

MP2 TOTAL ENERGY:    -6560.685388492 Eh
Dispersion correction           -0.018856619
FINAL SINGLE POINT ENERGY     -6560.704245111066

DIPOLE MOMENT
-------------
                                X             Y             Z
Electronic contribution:      0.00000       0.00001       1.77437
Nuclear contribution   :      0.00000       0.00000      -1.60670
                        -----------------------------------------
Total Dipole Moment    :      0.00000       0.00001       0.16767
                        -----------------------------------------
Magnitude (a.u.)       :      0.16767
Magnitude (Debye)      :      0.42619

Rotational constants in cm-1:     0.045915     0.042882     0.042882
Rotational constants in MHz :  1376.483459  1285.559854  1285.559421

                             ****ORCA TERMINATED NORMALLY****
TOTAL RUN TIME: 0 days 0 hours 0 minutes 20 seconds 790 msec
