                         Program Version 4.2.0 -  RELEASE  -
|  1> #
|  2> # Cu04C2_NH3_A ri-DSD-BLYP/2013-D3BJ/Def2-TZVPPD
|  3> #
|  4> ! rijk ri-dsd-blyp/2013 d3bj def2-tzvppd def2/jk def2-tzvppd/c grid4 nofinalgrid
|  5>
|  6> *xyz 2 1
|  7> Cu       0.543145   -0.896300    1.192832
|  8> Cu       0.543145   -0.896300   -1.192832
|  9> Cu      -1.492086   -0.543328    0.000000
| 10> Cu       0.211399    1.215580   -0.000000
| 11> N        0.543145    3.129666   -0.000000
| 12> H        0.146420    3.607894   -0.818022
| 13> H        0.146420    3.607894    0.818022
| 14> H        1.542647    3.366638   -0.000000
| 15> *
| 16>
| 17> %maxcore 5000
| 18>
| 19> %pal
| 20> nprocs = 24
| 21> end
| 22>
| 23>
| 24>                          ****END OF INPUT****

CARTESIAN COORDINATES (ANGSTROEM)
---------------------------------
  Cu     0.543145   -0.896300    1.192832
  Cu     0.543145   -0.896300   -1.192832
  Cu    -1.492086   -0.543328    0.000000
  Cu     0.211399    1.215580   -0.000000
  N      0.543145    3.129666   -0.000000
  H      0.146420    3.607894   -0.818022
  H      0.146420    3.607894    0.818022
  H      1.542647    3.366638   -0.000000

 Total Charge           Charge          ....    2
 Multiplicity           Mult            ....    1
 Number of Electrons    NEL             ....  124
 Basis Dimension        Dim             ....  356

ORBITAL ENERGIES
----------------

  NO   OCC          E(Eh)            E(eV)
   0   2.0000    -327.092762     -8900.6465
   1   2.0000    -327.092761     -8900.6465
   2   2.0000    -327.092756     -8900.6464
   3   2.0000    -327.073722     -8900.1285
   4   2.0000     -40.465297     -1101.1167
   5   2.0000     -40.465296     -1101.1167
   6   2.0000     -40.465279     -1101.1162
   7   2.0000     -40.451763     -1100.7484
   8   2.0000     -35.410819      -963.5774
   9   2.0000     -35.410807      -963.5770
  10   2.0000     -35.410806      -963.5770
  11   2.0000     -35.410661      -963.5731
  12   2.0000     -35.410661      -963.5731
  13   2.0000     -35.410652      -963.5728
  14   2.0000     -35.409995      -963.5550
  15   2.0000     -35.409994      -963.5549
  16   2.0000     -35.409983      -963.5546
  17   2.0000     -35.396916      -963.1991
  18   2.0000     -35.396915      -963.1990
  19   2.0000     -35.394929      -963.1450
  20   2.0000     -15.450898      -420.4403
  21   2.0000      -5.124723      -139.4508
  22   2.0000      -5.124218      -139.4371
  23   2.0000      -5.124217      -139.4370
  24   2.0000      -5.108098      -138.9984
  25   2.0000      -3.505683       -95.3945
  26   2.0000      -3.503401       -95.3324
  27   2.0000      -3.503397       -95.3323
  28   2.0000      -3.502026       -95.2950
  29   2.0000      -3.501710       -95.2864
  30   2.0000      -3.501705       -95.2862
  31   2.0000      -3.500978       -95.2664
  32   2.0000      -3.500817       -95.2621
  33   2.0000      -3.500816       -95.2621
  34   2.0000      -3.485454       -94.8440
  35   2.0000      -3.484063       -94.8062
  36   2.0000      -3.484058       -94.8060
  37   2.0000      -1.385102       -37.6905
  38   2.0000      -0.910623       -24.7793
  39   2.0000      -0.910599       -24.7787
  40   2.0000      -0.843362       -22.9491
  41   2.0000      -0.818540       -22.2736
  42   2.0000      -0.808681       -22.0053
  43   2.0000      -0.808670       -22.0050
  44   2.0000      -0.802531       -21.8380
  45   2.0000      -0.801012       -21.7967
  46   2.0000      -0.801005       -21.7964
  47   2.0000      -0.796108       -21.6632
  48   2.0000      -0.788270       -21.4499
  49   2.0000      -0.788247       -21.4493
  50   2.0000      -0.775165       -21.0933
  51   2.0000      -0.772542       -21.0219
  52   2.0000      -0.772539       -21.0219
  53   2.0000      -0.769761       -20.9463
  54   2.0000      -0.769745       -20.9458
  55   2.0000      -0.761855       -20.7311
  56   2.0000      -0.761852       -20.7311
  57   2.0000      -0.749164       -20.3858
  58   2.0000      -0.740618       -20.1532
  59   2.0000      -0.740610       -20.1530
  60   2.0000      -0.706175       -19.2160
  61   2.0000      -0.668959       -18.2033
  62   0.0000      -0.351464        -9.5638
  63   0.0000      -0.351446        -9.5633
  64   0.0000      -0.325435        -8.8555
  65   0.0000      -0.253429        -6.8962
  66   0.0000      -0.229814        -6.2535

MULLIKEN ATOMIC CHARGES
-----------------------
   0 Cu:    0.489106
   1 Cu:    0.489111
   2 Cu:    0.489053
   3 Cu:    0.248745
   4 N :   -0.376048
   5 H :    0.219980
   6 H :    0.219989
   7 H :    0.220064
Sum of atomic charges:    2.0000000

LOEWDIN ATOMIC CHARGES
----------------------
   0 Cu:    0.471682
   1 Cu:    0.471682
   2 Cu:    0.471698
   3 Cu:    0.255148
   4 N :    0.473526
   5 H :   -0.047905
   6 H :   -0.047905
   7 H :   -0.047926

  Mayer bond orders larger than 0.100000
B(  0-Cu,  1-Cu) :   0.3221 B(  0-Cu,  2-Cu) :   0.3222 B(  0-Cu,  3-Cu) :   0.2250
B(  1-Cu,  2-Cu) :   0.3222 B(  1-Cu,  3-Cu) :   0.2250 B(  2-Cu,  3-Cu) :   0.2251
B(  3-Cu,  4-N ) :   0.3208 B(  4-N ,  5-H ) :   0.9880 B(  4-N ,  6-H ) :   0.9880
B(  4-N ,  7-H ) :   0.9879

MP2 TOTAL ENERGY:    -6616.756370749 Eh
Dispersion correction           -0.020946323
FINAL SINGLE POINT ENERGY     -6616.777317071581

DIPOLE MOMENT
-------------
                                X             Y             Z
Electronic contribution:     -2.32130     -13.37841      -0.00000
Nuclear contribution   :      2.54223      14.65497       0.00000
                        -----------------------------------------
Total Dipole Moment    :      0.22093       1.27656      -0.00000
                        -----------------------------------------
Magnitude (a.u.)       :      1.29554
Magnitude (Debye)      :      3.29300

Rotational constants in cm-1:     0.046273     0.029218     0.029214
Rotational constants in MHz :  1387.222495   875.924520   875.809559

                             ****ORCA TERMINATED NORMALLY****
TOTAL RUN TIME: 0 days 0 hours 0 minutes 21 seconds 537 msec
