                         Program Version 4.2.0 -  RELEASE  -
|  1> #
|  2> # Cu04C2 ri-DSD-BLYP/2013-D3BJ/Def2-TZVPPD
|  3> #
|  4> ! rijk ri-dsd-blyp/2013 d3bj def2-tzvppd def2/jk def2-tzvppd/c grid4 nofinalgrid
|  5>
|  6> *xyz 2 1
|  7> Cu      -0.000001   -0.000007    1.488630
|  8> Cu       0.000001   -1.403449   -0.496203
|  9> Cu       1.215485    0.701727   -0.496214
| 10> Cu      -1.215485    0.701729   -0.496213
| 11> *
| 12>
| 13> %maxcore 5000
| 14>
| 15> %pal
| 16> nprocs = 24
| 17> end
| 18>
| 19>
| 20>                          ****END OF INPUT****

CARTESIAN COORDINATES (ANGSTROEM)
---------------------------------
  Cu    -0.000001   -0.000007    1.488630
  Cu     0.000001   -1.403449   -0.496203
  Cu     1.215485    0.701727   -0.496214
  Cu    -1.215485    0.701729   -0.496213

 Total Charge           Charge          ....    2
 Multiplicity           Mult            ....    1
 Number of Electrons    NEL             ....  114
 Basis Dimension        Dim             ....  268

ORBITAL ENERGIES
----------------

  NO   OCC          E(Eh)            E(eV)
   0   2.0000    -327.125344     -8901.5332
   1   2.0000    -327.125341     -8901.5331
   2   2.0000    -327.125334     -8901.5329
   3   2.0000    -327.125324     -8901.5326
   4   2.0000     -40.497369     -1101.9894
   5   2.0000     -40.497366     -1101.9893
   6   2.0000     -40.497359     -1101.9892
   7   2.0000     -40.497336     -1101.9885
   8   2.0000     -35.442908      -964.4506
   9   2.0000     -35.442906      -964.4505
  10   2.0000     -35.442904      -964.4504
  11   2.0000     -35.442896      -964.4502
  12   2.0000     -35.442892      -964.4501
  13   2.0000     -35.442892      -964.4501
  14   2.0000     -35.442884      -964.4499
  15   2.0000     -35.442884      -964.4499
  16   2.0000     -35.442226      -964.4320
  17   2.0000     -35.442223      -964.4319
  18   2.0000     -35.442216      -964.4317
  19   2.0000     -35.442203      -964.4314
  20   2.0000      -5.157070      -140.3310
  21   2.0000      -5.156547      -140.3168
  22   2.0000      -5.156545      -140.3167
  23   2.0000      -5.156542      -140.3166
  24   2.0000      -3.538429       -96.2855
  25   2.0000      -3.535960       -96.2184
  26   2.0000      -3.535959       -96.2183
  27   2.0000      -3.535958       -96.2183
  28   2.0000      -3.535012       -96.1926
  29   2.0000      -3.535010       -96.1925
  30   2.0000      -3.533532       -96.1523
  31   2.0000      -3.533529       -96.1522
  32   2.0000      -3.533528       -96.1522
  33   2.0000      -3.533491       -96.1512
  34   2.0000      -3.533490       -96.1512
  35   2.0000      -3.533490       -96.1511
  36   2.0000      -0.868090       -23.6219
  37   2.0000      -0.844688       -22.9851
  38   2.0000      -0.844688       -22.9851
  39   2.0000      -0.844680       -22.9849
  40   2.0000      -0.837152       -22.7801
  41   2.0000      -0.837151       -22.7800
  42   2.0000      -0.827865       -22.5273
  43   2.0000      -0.827862       -22.5273
  44   2.0000      -0.827855       -22.5271
  45   2.0000      -0.808778       -22.0080
  46   2.0000      -0.808771       -22.0078
  47   2.0000      -0.808769       -22.0077
  48   2.0000      -0.805671       -21.9234
  49   2.0000      -0.805668       -21.9233
  50   2.0000      -0.803775       -21.8718
  51   2.0000      -0.803771       -21.8717
  52   2.0000      -0.803765       -21.8716
  53   2.0000      -0.783792       -21.3281
  54   2.0000      -0.783791       -21.3280
  55   2.0000      -0.783782       -21.3278
  56   2.0000      -0.704341       -19.1661
  57   0.0000      -0.379447       -10.3253
  58   0.0000      -0.379447       -10.3253
  59   0.0000      -0.379444       -10.3252
  60   0.0000      -0.280806        -7.6411
  61   0.0000      -0.253591        -6.9006

MULLIKEN ATOMIC CHARGES
-----------------------
   0 Cu:    0.500010
   1 Cu:    0.499977
   2 Cu:    0.500002
   3 Cu:    0.500011
Sum of atomic charges:    2.0000000

LOEWDIN ATOMIC CHARGES
----------------------
   0 Cu:    0.500003
   1 Cu:    0.499996
   2 Cu:    0.500000
   3 Cu:    0.500001

  Mayer bond orders larger than 0.100000
B(  0-Cu,  1-Cu) :   0.3065 B(  0-Cu,  2-Cu) :   0.3065 B(  0-Cu,  3-Cu) :   0.3065
B(  1-Cu,  2-Cu) :   0.3065 B(  1-Cu,  3-Cu) :   0.3065 B(  2-Cu,  3-Cu) :   0.3065

MP2 TOTAL ENERGY:    -6560.138057831 Eh
Dispersion correction           -0.017503594
FINAL SINGLE POINT ENERGY     -6560.155561425317

DIPOLE MOMENT
-------------
                                X             Y             Z
Electronic contribution:     -0.00000       0.00000       0.00001
Nuclear contribution   :      0.00000       0.00000      -0.00000
                        -----------------------------------------
Total Dipole Moment    :     -0.00000       0.00000       0.00001
                        -----------------------------------------
Magnitude (a.u.)       :      0.00001
Magnitude (Debye)      :      0.00002

Rotational constants in cm-1:     0.044890     0.044889     0.044888
Rotational constants in MHz :  1345.776498  1345.751239  1345.708462

                             ****ORCA TERMINATED NORMALLY****
TOTAL RUN TIME: 0 days 0 hours 0 minutes 12 seconds 783 msec
