                         Program Version 4.2.0 -  RELEASE  -
|  1> #
|  2> # Cu04C2_H_E ri-DSD-BLYP/2013-D3BJ/Def2-TZVPPD
|  3> #
|  4> ! rijk ri-dsd-blyp/2013 d3bj def2-tzvppd def2/jk def2-tzvppd/c grid4 nofinalgrid
|  5>
|  6> *xyz 2 2
|  7> Cu      -0.967673    0.056725    1.180703
|  8> Cu      -0.972439   -0.054931   -1.177653
|  9> Cu       0.936359    1.185605   -0.057167
| 10> Cu       0.933653   -1.187345    0.053806
| 11> H        2.032882   -0.001578    0.009000
| 12> *
| 13>
| 14> %maxcore 5000
| 15>
| 16> %pal
| 17> nprocs = 24
| 18> end
| 19>
| 20>
| 21>                          ****END OF INPUT****

CARTESIAN COORDINATES (ANGSTROEM)
---------------------------------
  Cu    -0.967673    0.056725    1.180703
  Cu    -0.972439   -0.054931   -1.177653
  Cu     0.936359    1.185605   -0.057167
  Cu     0.933653   -1.187345    0.053806
  H      2.032882   -0.001578    0.009000

 Total Charge           Charge          ....    2
 Multiplicity           Mult            ....    2
 Number of Electrons    NEL             ....  115
 Basis Dimension        Dim             ....  285

ORBITAL ENERGIES
----------------
                 SPIN UP ORBITALS
  NO   OCC          E(Eh)            E(eV)
   0   1.0000    -327.144121     -8902.0441
   1   1.0000    -327.144111     -8902.0438
   2   1.0000    -327.132176     -8901.7191
   3   1.0000    -327.132156     -8901.7185
   4   1.0000     -40.521239     -1102.6390
   5   1.0000     -40.521223     -1102.6385
   6   1.0000     -40.503136     -1102.1464
   7   1.0000     -40.503116     -1102.1458
   8   1.0000     -35.468140      -965.1371
   9   1.0000     -35.468126      -965.1368
  10   1.0000     -35.466137      -965.0826
  11   1.0000     -35.466124      -965.0823
  12   1.0000     -35.464328      -965.0334
  13   1.0000     -35.464316      -965.0331
  14   1.0000     -35.448604      -964.6055
  15   1.0000     -35.448580      -964.6049
  16   1.0000     -35.448417      -964.6005
  17   1.0000     -35.448395      -964.5999
  18   1.0000     -35.447997      -964.5890
  19   1.0000     -35.447974      -964.5884
  20   1.0000      -5.180752      -140.9754
  21   1.0000      -5.180397      -140.9658
  22   1.0000      -5.163363      -140.5023
  23   1.0000      -5.162977      -140.4917
  24   1.0000      -3.565470       -97.0214
  25   1.0000      -3.563371       -96.9642
  26   1.0000      -3.559495       -96.8588
  27   1.0000      -3.557877       -96.8148
  28   1.0000      -3.553395       -96.6928
  29   1.0000      -3.553094       -96.6846
  30   1.0000      -3.544191       -96.4423
  31   1.0000      -3.540508       -96.3421
  32   1.0000      -3.540011       -96.3286
  33   1.0000      -3.539950       -96.3269
  34   1.0000      -3.539753       -96.3216
  35   1.0000      -3.539651       -96.3188
  36   1.0000      -0.923281       -25.1238
  37   1.0000      -0.879477       -23.9318
  38   1.0000      -0.858906       -23.3720
  39   1.0000      -0.857933       -23.3455
  40   1.0000      -0.855982       -23.2925
  41   1.0000      -0.846650       -23.0385
  42   1.0000      -0.845792       -23.0152
  43   1.0000      -0.844976       -22.9930
  44   1.0000      -0.839245       -22.8370
  45   1.0000      -0.827059       -22.5054
  46   1.0000      -0.827050       -22.5052
  47   1.0000      -0.825507       -22.4632
  48   1.0000      -0.824689       -22.4409
  49   1.0000      -0.823320       -22.4037
  50   1.0000      -0.818489       -22.2722
  51   1.0000      -0.811926       -22.0936
  52   1.0000      -0.807952       -21.9855
  53   1.0000      -0.806061       -21.9340
  54   1.0000      -0.799559       -21.7571
  55   1.0000      -0.794010       -21.6061
  56   1.0000      -0.779958       -21.2237
  57   1.0000      -0.659238       -17.9388
  58   0.0000      -0.389741       -10.6054
  59   0.0000      -0.382885       -10.4188
  60   0.0000      -0.330107        -8.9827
  61   0.0000      -0.284465        -7.7407
  62   0.0000      -0.269126        -7.3233

                 SPIN DOWN ORBITALS
  NO   OCC          E(Eh)            E(eV)
   0   1.0000    -327.143902     -8902.0381
   1   1.0000    -327.143892     -8902.0379
   2   1.0000    -327.131507     -8901.7009
   3   1.0000    -327.131482     -8901.7002
   4   1.0000     -40.517079     -1102.5258
   5   1.0000     -40.517063     -1102.5253
   6   1.0000     -40.503357     -1102.1524
   7   1.0000     -40.503344     -1102.1520
   8   1.0000     -35.462670      -964.9883
   9   1.0000     -35.462657      -964.9880
  10   1.0000     -35.462171      -964.9747
  11   1.0000     -35.462155      -964.9743
  12   1.0000     -35.461240      -964.9494
  13   1.0000     -35.461219      -964.9488
  14   1.0000     -35.449212      -964.6221
  15   1.0000     -35.449199      -964.6218
  16   1.0000     -35.449123      -964.6197
  17   1.0000     -35.449109      -964.6193
  18   1.0000     -35.448593      -964.6052
  19   1.0000     -35.448588      -964.6051
  20   1.0000      -5.171862      -140.7335
  21   1.0000      -5.171510      -140.7240
  22   1.0000      -5.163003      -140.4924
  23   1.0000      -5.162626      -140.4822
  24   1.0000      -3.550006       -96.6006
  25   1.0000      -3.549732       -96.5931
  26   1.0000      -3.549415       -96.5845
  27   1.0000      -3.547473       -96.5316
  28   1.0000      -3.546664       -96.5096
  29   1.0000      -3.545371       -96.4744
  30   1.0000      -3.543557       -96.4251
  31   1.0000      -3.542439       -96.3947
  32   1.0000      -3.542073       -96.3847
  33   1.0000      -3.541634       -96.3728
  34   1.0000      -3.541493       -96.3689
  35   1.0000      -3.539810       -96.3231
  36   1.0000      -0.874708       -23.8020
  37   1.0000      -0.865876       -23.5617
  38   1.0000      -0.855218       -23.2717
  39   1.0000      -0.852732       -23.2040
  40   1.0000      -0.851761       -23.1776
  41   1.0000      -0.844557       -22.9816
  42   1.0000      -0.843510       -22.9531
  43   1.0000      -0.840506       -22.8713
  44   1.0000      -0.832617       -22.6566
  45   1.0000      -0.823248       -22.4017
  46   1.0000      -0.822099       -22.3705
  47   1.0000      -0.821190       -22.3457
  48   1.0000      -0.819025       -22.2868
  49   1.0000      -0.818698       -22.2779
  50   1.0000      -0.812884       -22.1197
  51   1.0000      -0.810964       -22.0675
  52   1.0000      -0.810569       -22.0567
  53   1.0000      -0.800964       -21.7953
  54   1.0000      -0.793026       -21.5793
  55   1.0000      -0.767209       -20.8768
  56   1.0000      -0.735489       -20.0137
  57   0.0000      -0.444593       -12.0980
  58   0.0000      -0.376981       -10.2582
  59   0.0000      -0.376888       -10.2556
  60   0.0000      -0.300361        -8.1732
  61   0.0000      -0.280038        -7.6202

MULLIKEN ATOMIC CHARGES AND SPIN POPULATIONS
--------------------------------------------
   0 Cu:    0.464245    0.302051
   1 Cu:    0.463188    0.305560
   2 Cu:    0.389967   -0.017061
   3 Cu:    0.389738   -0.017015
   4 H :    0.292862    0.426465
Sum of atomic charges         :    2.0000000

LOEWDIN ATOMIC CHARGES AND SPIN POPULATIONS
-------------------------------------------
   0 Cu:    0.528045    0.140952
   1 Cu:    0.528489    0.141121
   2 Cu:    0.457588    0.254512
   3 Cu:    0.457431    0.254614
   4 H :    0.028447    0.208801

  Mayer bond orders larger than 0.100000
B(  0-Cu,  1-Cu) :   0.4556 B(  0-Cu,  2-Cu) :   0.2020 B(  0-Cu,  3-Cu) :   0.2021
B(  1-Cu,  2-Cu) :   0.2011 B(  1-Cu,  3-Cu) :   0.2015 B(  2-Cu,  3-Cu) :   0.4730
B(  2-Cu,  4-H ) :   0.2988 B(  3-Cu,  4-H ) :   0.2987

MP2 TOTAL ENERGY:    -6560.686034683 Eh
Dispersion correction           -0.018200706
FINAL SINGLE POINT ENERGY     -6560.704235388979

DIPOLE MOMENT
-------------
                                X             Y             Z
Electronic contribution:     -2.49938       0.00230      -0.01140
Nuclear contribution   :      2.08414      -0.00162       0.00923
                        -----------------------------------------
Total Dipole Moment    :     -0.41525       0.00068      -0.00217
                        -----------------------------------------
Magnitude (a.u.)       :      0.41525
Magnitude (Debye)      :      1.05549

Rotational constants in cm-1:     0.047295     0.040918     0.040701
Rotational constants in MHz :  1417.862725  1226.705268  1220.194326

                             ****ORCA TERMINATED NORMALLY****
TOTAL RUN TIME: 0 days 0 hours 0 minutes 26 seconds 513 msec
