                         Program Version 4.2.0 -  RELEASE  -
|  1> #
|  2> # Cu04C2_H_A ri-DSD-BLYP/2013-D3BJ/Def2-TZVPPD
|  3> #
|  4> ! rijk ri-dsd-blyp/2013 d3bj def2-tzvppd def2/jk def2-tzvppd/c grid4 nofinalgrid
|  5>
|  6> *xyz 2 2
|  7> Cu      -0.000000    1.401870   -0.545062
|  8> Cu       1.214055   -0.700935   -0.545062
|  9> Cu      -1.214055   -0.700935   -0.545062
| 10> Cu       0.000000    0.000000    1.530006
| 11> H        0.000000    0.000000    3.050192
| 12> *
| 13>
| 14> %maxcore 5000
| 15>
| 16> %pal
| 17> nprocs = 24
| 18> end
| 19>
| 20>
| 21>                          ****END OF INPUT****

CARTESIAN COORDINATES (ANGSTROEM)
---------------------------------
  Cu    -0.000000    1.401870   -0.545062
  Cu     1.214055   -0.700935   -0.545062
  Cu    -1.214055   -0.700935   -0.545062
  Cu     0.000000    0.000000    1.530006
  H      0.000000    0.000000    3.050192

 Total Charge           Charge          ....    2
 Multiplicity           Mult            ....    2
 Number of Electrons    NEL             ....  115
 Basis Dimension        Dim             ....  285

ORBITAL ENERGIES
----------------
                 SPIN UP ORBITALS
  NO   OCC          E(Eh)            E(eV)
   0   1.0000    -327.150844     -8902.2271
   1   1.0000    -327.124105     -8901.4994
   2   1.0000    -327.124094     -8901.4991
   3   1.0000    -327.124090     -8901.4990
   4   1.0000     -40.530290     -1102.8853
   5   1.0000     -40.496124     -1101.9555
   6   1.0000     -40.496115     -1101.9553
   7   1.0000     -40.496101     -1101.9549
   8   1.0000     -35.479202      -965.4382
   9   1.0000     -35.472390      -965.2528
  10   1.0000     -35.472390      -965.2528
  11   1.0000     -35.441673      -964.4170
  12   1.0000     -35.441664      -964.4167
  13   1.0000     -35.441657      -964.4165
  14   1.0000     -35.441600      -964.4150
  15   1.0000     -35.441586      -964.4146
  16   1.0000     -35.441581      -964.4144
  17   1.0000     -35.440974      -964.3979
  18   1.0000     -35.440965      -964.3977
  19   1.0000     -35.440956      -964.3974
  20   1.0000      -5.188502      -141.1863
  21   1.0000      -5.155574      -140.2903
  22   1.0000      -5.155174      -140.2794
  23   1.0000      -5.155170      -140.2793
  24   1.0000      -3.578421       -97.3738
  25   1.0000      -3.558422       -96.8296
  26   1.0000      -3.558421       -96.8295
  27   1.0000      -3.536325       -96.2283
  28   1.0000      -3.534230       -96.1713
  29   1.0000      -3.534230       -96.1713
  30   1.0000      -3.533041       -96.1389
  31   1.0000      -3.532857       -96.1339
  32   1.0000      -3.532852       -96.1338
  33   1.0000      -3.532122       -96.1139
  34   1.0000      -3.532120       -96.1139
  35   1.0000      -3.531996       -96.1105
  36   1.0000      -0.914088       -24.8736
  37   1.0000      -0.857536       -23.3347
  38   1.0000      -0.857524       -23.3344
  39   1.0000      -0.851010       -23.1572
  40   1.0000      -0.845142       -22.9975
  41   1.0000      -0.845142       -22.9975
  42   1.0000      -0.837929       -22.8012
  43   1.0000      -0.832893       -22.6642
  44   1.0000      -0.832892       -22.6641
  45   1.0000      -0.826683       -22.4952
  46   1.0000      -0.818275       -22.2664
  47   1.0000      -0.818271       -22.2663
  48   1.0000      -0.807146       -21.9636
  49   1.0000      -0.806217       -21.9383
  50   1.0000      -0.806217       -21.9383
  51   1.0000      -0.802145       -21.8275
  52   1.0000      -0.802133       -21.8272
  53   1.0000      -0.792857       -21.5747
  54   1.0000      -0.792852       -21.5746
  55   1.0000      -0.781780       -21.2733
  56   1.0000      -0.768604       -20.9148
  57   1.0000      -0.700321       -19.0567
  58   0.0000      -0.379595       -10.3293
  59   0.0000      -0.379594       -10.3293
  60   0.0000      -0.353027        -9.6064
  61   0.0000      -0.272939        -7.4271
  62   0.0000      -0.257330        -7.0023

                 SPIN DOWN ORBITALS
  NO   OCC          E(Eh)            E(eV)
   0   1.0000    -327.149799     -8902.1986
   1   1.0000    -327.124048     -8901.4979
   2   1.0000    -327.124037     -8901.4976
   3   1.0000    -327.124033     -8901.4975
   4   1.0000     -40.525474     -1102.7542
   5   1.0000     -40.496102     -1101.9550
   6   1.0000     -40.496094     -1101.9547
   7   1.0000     -40.496080     -1101.9543
   8   1.0000     -35.471729      -965.2348
   9   1.0000     -35.469509      -965.1744
  10   1.0000     -35.469509      -965.1744
  11   1.0000     -35.441660      -964.4166
  12   1.0000     -35.441646      -964.4162
  13   1.0000     -35.441641      -964.4161
  14   1.0000     -35.441619      -964.4155
  15   1.0000     -35.441609      -964.4152
  16   1.0000     -35.441603      -964.4151
  17   1.0000     -35.440981      -964.3981
  18   1.0000     -35.440972      -964.3979
  19   1.0000     -35.440962      -964.3976
  20   1.0000      -5.177018      -140.8738
  21   1.0000      -5.155465      -140.2873
  22   1.0000      -5.155066      -140.2765
  23   1.0000      -5.155062      -140.2764
  24   1.0000      -3.555425       -96.7480
  25   1.0000      -3.555424       -96.7480
  26   1.0000      -3.548621       -96.5629
  27   1.0000      -3.535856       -96.2155
  28   1.0000      -3.534186       -96.1701
  29   1.0000      -3.534185       -96.1701
  30   1.0000      -3.533152       -96.1420
  31   1.0000      -3.533061       -96.1395
  32   1.0000      -3.533056       -96.1393
  33   1.0000      -3.532210       -96.1163
  34   1.0000      -3.531920       -96.1084
  35   1.0000      -3.531916       -96.1083
  36   1.0000      -0.862716       -23.4757
  37   1.0000      -0.854293       -23.2465
  38   1.0000      -0.854282       -23.2462
  39   1.0000      -0.843732       -22.9591
  40   1.0000      -0.842518       -22.9261
  41   1.0000      -0.842517       -22.9260
  42   1.0000      -0.832296       -22.6479
  43   1.0000      -0.832294       -22.6479
  44   1.0000      -0.826255       -22.4835
  45   1.0000      -0.817367       -22.2417
  46   1.0000      -0.817363       -22.2416
  47   1.0000      -0.807284       -21.9673
  48   1.0000      -0.806155       -21.9366
  49   1.0000      -0.806154       -21.9366
  50   1.0000      -0.802105       -21.8264
  51   1.0000      -0.802093       -21.8261
  52   1.0000      -0.801116       -21.7995
  53   1.0000      -0.791427       -21.5358
  54   1.0000      -0.791421       -21.5357
  55   1.0000      -0.782238       -21.2858
  56   1.0000      -0.697742       -18.9865
  57   0.0000      -0.428699       -11.6655
  58   0.0000      -0.378307       -10.2943
  59   0.0000      -0.378306       -10.2942
  60   0.0000      -0.330195        -8.9851
  61   0.0000      -0.269094        -7.3224

MULLIKEN ATOMIC CHARGES AND SPIN POPULATIONS
--------------------------------------------
   0 Cu:    0.528297    0.010189
   1 Cu:    0.528319    0.010196
   2 Cu:    0.528346    0.010191
   3 Cu:    0.020649    0.328575
   4 H :    0.394390    0.640849
Sum of atomic charges         :    2.0000000

LOEWDIN ATOMIC CHARGES AND SPIN POPULATIONS
-------------------------------------------
   0 Cu:    0.492581    0.026164
   1 Cu:    0.492580    0.026164
   2 Cu:    0.492581    0.026164
   3 Cu:    0.370808    0.383685
   4 H :    0.151450    0.537822

  Mayer bond orders larger than 0.100000
B(  0-Cu,  1-Cu) :   0.2920 B(  0-Cu,  2-Cu) :   0.2920 B(  0-Cu,  3-Cu) :   0.2992
B(  1-Cu,  2-Cu) :   0.2920 B(  1-Cu,  3-Cu) :   0.2992 B(  2-Cu,  3-Cu) :   0.2992
B(  3-Cu,  4-H ) :   0.2314

MP2 TOTAL ENERGY:    -6560.662583937 Eh
Dispersion correction           -0.017802109
FINAL SINGLE POINT ENERGY     -6560.680386045914

DIPOLE MOMENT
-------------
                                X             Y             Z
Electronic contribution:      0.00000       0.00001      -3.10847
Nuclear contribution   :      0.00000       0.00000       3.12710
                        -----------------------------------------
Total Dipole Moment    :      0.00000       0.00001       0.01863
                        -----------------------------------------
Magnitude (a.u.)       :      0.01863
Magnitude (Debye)      :      0.04736

Rotational constants in cm-1:     0.044993     0.041927     0.041927
Rotational constants in MHz :  1348.855174  1256.945404  1256.945373

                             ****ORCA TERMINATED NORMALLY****
TOTAL RUN TIME: 0 days 0 hours 0 minutes 31 seconds 557 msec
