                         Program Version 4.2.0 -  RELEASE  -
|  1> #
|  2> # Cu04N0 ri-DSD-BLYP/2013-D3BJ/Def2-TZVPPD
|  3> #
|  4> ! rijk ri-dsd-blyp/2013 d3bj def2-tzvppd def2/jk def2-tzvppd/c grid4 nofinalgrid
|  5>
|  6> *xyz 0 1
|  7> Cu      -0.387876   -0.085256    2.052405
|  8> Cu       1.110029    0.096858    0.214111
|  9> Cu       0.386859    0.085217   -2.052443
| 10> Cu      -1.109011   -0.096818   -0.214073
| 11> *
| 12>
| 13> %maxcore 5000
| 14>
| 15> %pal
| 16> nprocs = 24
| 17> end
| 18>
| 19>
| 20>                          ****END OF INPUT****

CARTESIAN COORDINATES (ANGSTROEM)
---------------------------------
  Cu    -0.387876   -0.085256    2.052405
  Cu     1.110029    0.096858    0.214111
  Cu     0.386859    0.085217   -2.052443
  Cu    -1.109011   -0.096818   -0.214073

 Total Charge           Charge          ....    0
 Multiplicity           Mult            ....    1
 Number of Electrons    NEL             ....  116
 Basis Dimension        Dim             ....  268

ORBITAL ENERGIES
----------------

  NO   OCC          E(Eh)            E(eV)
   0   2.0000    -326.726195     -8890.6718
   1   2.0000    -326.726182     -8890.6714
   2   2.0000    -326.699313     -8889.9403
   3   2.0000    -326.699299     -8889.9399
   4   2.0000     -40.101290     -1091.2116
   5   2.0000     -40.101274     -1091.2111
   6   2.0000     -40.075468     -1090.5089
   7   2.0000     -40.075449     -1090.5084
   8   2.0000     -35.046360      -953.6599
   9   2.0000     -35.046349      -953.6596
  10   2.0000     -35.046119      -953.6534
  11   2.0000     -35.046110      -953.6531
  12   2.0000     -35.045988      -953.6498
  13   2.0000     -35.045981      -953.6496
  14   2.0000     -35.020210      -952.9484
  15   2.0000     -35.020194      -952.9479
  16   2.0000     -35.019834      -952.9381
  17   2.0000     -35.019818      -952.9377
  18   2.0000     -35.019453      -952.9278
  19   2.0000     -35.019438      -952.9273
  20   2.0000      -4.759863      -129.5225
  21   2.0000      -4.759246      -129.5057
  22   2.0000      -4.731771      -128.7580
  23   2.0000      -4.731751      -128.7575
  24   2.0000      -3.141648       -85.4886
  25   2.0000      -3.136893       -85.3592
  26   2.0000      -3.136339       -85.3441
  27   2.0000      -3.136235       -85.3413
  28   2.0000      -3.135777       -85.3288
  29   2.0000      -3.135350       -85.3172
  30   2.0000      -3.109398       -84.6110
  31   2.0000      -3.109256       -84.6072
  32   2.0000      -3.107509       -84.5596
  33   2.0000      -3.107441       -84.5578
  34   2.0000      -3.106005       -84.5187
  35   2.0000      -3.105988       -84.5182
  36   2.0000      -0.457493       -12.4490
  37   2.0000      -0.453672       -12.3450
  38   2.0000      -0.441972       -12.0267
  39   2.0000      -0.433475       -11.7955
  40   2.0000      -0.431602       -11.7445
  41   2.0000      -0.431364       -11.7380
  42   2.0000      -0.419727       -11.4214
  43   2.0000      -0.411941       -11.2095
  44   2.0000      -0.403375       -10.9764
  45   2.0000      -0.402107       -10.9419
  46   2.0000      -0.392094       -10.6694
  47   2.0000      -0.388987       -10.5849
  48   2.0000      -0.388910       -10.5828
  49   2.0000      -0.386736       -10.5236
  50   2.0000      -0.382632       -10.4119
  51   2.0000      -0.382582       -10.4106
  52   2.0000      -0.380349       -10.3498
  53   2.0000      -0.378916       -10.3108
  54   2.0000      -0.375018       -10.2047
  55   2.0000      -0.361867        -9.8469
  56   2.0000      -0.302991        -8.2448
  57   2.0000      -0.190820        -5.1925
  58   0.0000      -0.035843        -0.9753
  59   0.0000       0.000812         0.0221
  60   0.0000       0.001450         0.0395
  61   0.0000       0.034269         0.9325
  62   0.0000       0.036924         1.0048

MULLIKEN ATOMIC CHARGES
-----------------------
   0 Cu:   -0.239262
   1 Cu:    0.239370
   2 Cu:   -0.239320
   3 Cu:    0.239212
Sum of atomic charges:    0.0000000

LOEWDIN ATOMIC CHARGES
----------------------
   0 Cu:    0.163063
   1 Cu:   -0.162795
   2 Cu:    0.163063
   3 Cu:   -0.163331

  Mayer bond orders larger than 0.100000
B(  0-Cu,  1-Cu) :   0.4526 B(  0-Cu,  3-Cu) :   0.4514 B(  1-Cu,  2-Cu) :   0.4513
B(  1-Cu,  3-Cu) :   0.3740 B(  2-Cu,  3-Cu) :   0.4528

MP2 TOTAL ENERGY:    -6560.778221114 Eh
Dispersion correction           -0.015668338
FINAL SINGLE POINT ENERGY     -6560.793889452911

DIPOLE MOMENT
-------------
                                X             Y             Z
Electronic contribution:      0.00086       0.00008       0.00000
Nuclear contribution   :      0.00000       0.00000      -0.00000
                        -----------------------------------------
Total Dipole Moment    :      0.00086       0.00008       0.00000
                        -----------------------------------------
Magnitude (a.u.)       :      0.00087
Magnitude (Debye)      :      0.00221

Rotational constants in cm-1:     0.103116     0.030352     0.023450
Rotational constants in MHz :  3091.345194   909.942810   703.010463

                             ****ORCA TERMINATED NORMALLY****
TOTAL RUN TIME: 0 days 0 hours 0 minutes 13 seconds 6 msec
