                         Program Version 4.2.0 -  RELEASE  -
|  1> #
|  2> # NH3 ri-DSD-BLYP/2013-D3BJ/Def2-TZVPPD
|  3> #
|  4> ! rijk ri-dsd-blyp/2013 d3bj def2-tzvppd def2/jk def2-tzvppd/c grid4 nofinalgrid
|  5>
|  6> *xyz 0 1
|  7> N       -0.000000    0.125670    0.000000
|  8> H       -0.933163   -0.293418    0.000000
|  9> H        0.466582   -0.293138    0.808252
| 10> H        0.466582   -0.293138   -0.808252
| 11> *
| 12>
| 13> %maxcore 5000
| 14>
| 15> %pal
| 16> nprocs = 24
| 17> end
| 18>
| 19>
| 20>                          ****END OF INPUT****

CARTESIAN COORDINATES (ANGSTROEM)
---------------------------------
  N     -0.000000    0.125670    0.000000
  H     -0.933163   -0.293418    0.000000
  H      0.466582   -0.293138    0.808252
  H      0.466582   -0.293138   -0.808252

 Total Charge           Charge          ....    0
 Multiplicity           Mult            ....    1
 Number of Electrons    NEL             ....   10
 Basis Dimension        Dim             ....   88

ORBITAL ENERGIES
----------------

  NO   OCC          E(Eh)            E(eV)
   0   2.0000     -15.101817      -410.9413
   1   2.0000      -1.040583       -28.3157
   2   2.0000      -0.565448       -15.3866
   3   2.0000      -0.565394       -15.3851
   4   2.0000      -0.381982       -10.3943
   5   0.0000       0.050347         1.3700
   6   0.0000       0.129492         3.5237
   7   0.0000       0.129497         3.5238
   8   0.0000       0.174667         4.7529
   9   0.0000       0.193603         5.2682

MULLIKEN ATOMIC CHARGES
-----------------------
   0 N :   -0.368811
   1 H :    0.122905
   2 H :    0.122953
   3 H :    0.122953
Sum of atomic charges:   -0.0000000

LOEWDIN ATOMIC CHARGES
----------------------
   0 N :    0.431324
   1 H :   -0.143757
   2 H :   -0.143783
   3 H :   -0.143783

  Mayer bond orders larger than 0.100000
B(  0-N ,  1-H ) :   1.0136 B(  0-N ,  2-H ) :   1.0136 B(  0-N ,  3-H ) :   1.0136

MP2 TOTAL ENERGY:      -56.517009860 Eh
Dispersion correction           -0.000678807
FINAL SINGLE POINT ENERGY       -56.517688666986

DIPOLE MOMENT
-------------
                                X             Y             Z
Electronic contribution:      0.00007       0.30333      -0.00000
Nuclear contribution   :      0.00000      -0.96926       0.00000
                        -----------------------------------------
Total Dipole Moment    :      0.00007      -0.66592      -0.00000
                        -----------------------------------------
Magnitude (a.u.)       :      0.66592
Magnitude (Debye)      :      1.69265

Rotational constants in cm-1:     9.616093     9.614148     6.400903
Rotational constants in MHz : 288283.214631 288224.911301 191894.257358

                             ****ORCA TERMINATED NORMALLY****
TOTAL RUN TIME: 0 days 0 hours 0 minutes 3 seconds 222 msec
