                               Psi4 1.3.2 release

  ==> Input File <==

--------------------------------------------------------------------------
memory 144 GB

molecule {
0 1
Cu       0.000000    0.000000    0.048513
H        0.000000    0.000000   -1.406870
 }

set dynamic_level 1
set basis Def2-TZVPPD
set full_hess_every 10

optimize("M11-D3BJ")
frequencies("M11-D3BJ")
--------------------------------------------------------------------------

    Molecular point group: c2v
  Charge       = 0
  Multiplicity = 1
  Basis Set: DEF2-TZVPPD
    Blend: DEF2-TZVPPD
  Basis Set: (DEF2-TZVPPD AUX)
    Blend: DEF2-TZVPP-JKFIT
  @DF-RKS Final Energy: -1640.90041362691090
    Total Energy =                      -1640.9004136269109040
    Molecular point group: c2v
  Basis Set: DEF2-TZVPPD
    Blend: DEF2-TZVPPD
  Basis Set: (DEF2-TZVPPD AUX)
    Blend: DEF2-TZVPP-JKFIT
  Basis Set: DEF2-TZVPPD
    Blend: DEF2-TZVPPD
  Basis Set: (DEF2-TZVPPD AUX)
    Blend: DEF2-TZVPP-JKFIT
  @DF-RKS Final Energy: -1640.90041363160822
    Total Energy =                      -1640.9004136316082167
  Basis Set: DEF2-TZVPPD
    Blend: DEF2-TZVPPD
  Basis Set: (DEF2-TZVPPD AUX)
    Blend: DEF2-TZVPP-JKFIT
  Basis Set: DEF2-TZVPPD
    Blend: DEF2-TZVPPD
  @DF-RKS Final Energy: -1640.90041363096543
    Total Energy =                      -1640.9004136309654314
  @DF-RKS Final Energy: -1640.90034269437319
    Total Energy =                      -1640.9003426943734212
  @DF-RKS Final Energy: -1640.90048070622697
    Total Energy =                      -1640.9004807062269720

  Vibration                       6
  Freq [cm^-1]                2019.1875
  Irrep                           A1
  Reduced mass [u]              1.0237
  Force const [mDyne/A]         2.4591

    Irrep   Nso     Nmo     Nalpha   Nbeta   Ndocc  Nsocc

  @DF-RKS Final Energy: -1640.90106693251460
    Total Energy =                      -1640.9010669325145955

    Irrep   Nso     Nmo     Nalpha   Nbeta   Ndocc  Nsocc

  @DF-RKS Final Energy: -1640.90107554668612
    Total Energy =                      -1640.9010755466861156
  **** Optimization is complete! (in 3 steps) ****
    Final optimized geometry and variables:

    Irrep   Nso     Nmo     Nalpha   Nbeta   Ndocc  Nsocc

  @DF-RKS Final Energy: -1640.90107554668589
    Total Energy =                      -1640.9010755466858882

     Irrep 1: 1
     Irrep 2: 0
     Irrep 3: 0
     Irrep 4: 0

      Irrep 1: 2
      Irrep 2: 0
      Irrep 3: 0
      Irrep 4: 0

    Irrep   Nso     Nmo     Nalpha   Nbeta   Ndocc  Nsocc

  @DF-RKS Final Energy: -1640.90107554668566
    Total Energy =                      -1640.9010755466856608
  Basis Set: (DEF2-TZVPPD AUX)
    Blend: DEF2-TZVPP-JKFIT
  Basis Set: DEF2-TZVPPD
    Blend: DEF2-TZVPPD

    Irrep   Nso     Nmo     Nalpha   Nbeta   Ndocc  Nsocc

  Basis Set: (DEF2-TZVPPD AUX)
    Blend: DEF2-TZVPP-JKFIT
  @DF-RKS Final Energy: -1640.90107259895285
    Total Energy =                      -1640.9010725989526236
  Basis Set: DEF2-TZVPPD
    Blend: DEF2-TZVPPD
  Basis Set: (DEF2-TZVPPD AUX)
    Blend: DEF2-TZVPP-JKFIT
    Molecular point group: c2v
  Charge       = 0
  Multiplicity = 1
  Basis Set: DEF2-TZVPPD
    Blend: DEF2-TZVPPD

    Irrep   Nso     Nmo     Nalpha   Nbeta   Ndocc  Nsocc

  Basis Set: (DEF2-TZVPPD AUX)
    Blend: DEF2-TZVPP-JKFIT

    Orbital Energies [Eh]
    ---------------------

    Doubly Occupied:

       1A1  -323.934708     2A1   -39.064068     3A1   -34.328968
       1B2   -34.328022     1B1   -34.328022     4A1    -4.418541
       5A1    -2.940975     2B2    -2.936842     2B1    -2.936842
       6A1    -0.443102     3B2    -0.413323     3B1    -0.413323
       1A2    -0.411521     7A1    -0.411520     8A1    -0.328733

  @DF-RKS Final Energy: -1640.90107542202554

   => Energetics <=

    Nuclear Repulsion Energy =             10.1637041557969763
    One-Electron Energy =               -2307.7755584526494204
    Two-Electron Energy =                 693.4861833823189272
    DFT Exchange-Correlation Energy =     -36.7753655974919269
    Empirical Dispersion Energy =          -0.0000389100000000
    VV10 Nonlocal Energy =                  0.0000000000000000
    Total Energy =                      -1640.9010754220255421

  Dipole Moment: [D]
     X:     0.0000      Y:     0.0000      Z:     3.6028     Total:     3.6028

    Molecular point group: c2v

    Geometry (in Angstrom), charge = 0, multiplicity = 1:

       Center              X                  Y                   Z               Mass
    ------------   -----------------  -----------------  -----------------  -----------------
         CU           0.000000000000     0.000000000000     0.023800009492    62.929597720000
         H            0.000000000000     0.000000000000    -1.486096271843     1.007825032230

  Basis Set: DEF2-TZVPPD
    Blend: DEF2-TZVPPD
  Basis Set: (DEF2-TZVPPD AUX)
    Blend: DEF2-TZVPP-JKFIT

  -Total Gradient:
     Atom            X                  Y                   Z
    ------   -----------------  -----------------  -----------------
       1        0.000000000000     0.000000000000     0.000576962386
       2       -0.000000000000     0.000000000000    -0.000347028190

  Vibration                       6
  Freq [cm^-1]                1806.8807
  Irrep                           A1
  Reduced mass [u]              1.0237
  Force const [mDyne/A]         1.9692

  ==> Thermochemistry Components <==

  Entropy, S
    Electronic S            0.000 [cal/(mol K)]        0.000 [J/(mol K)]       0.00000000 [mEh/K] (multiplicity = 1)
    Translational S        38.385 [cal/(mol K)]      160.602 [J/(mol K)]       0.06117004 [mEh/K] (mol. weight = 63.9374 [u], P = 101325.00 [Pa])
    Rotational S            8.588 [cal/(mol K)]       35.931 [J/(mol K)]       0.01368526 [mEh/K] (symmetry no. = 1)
    Vibrational S           0.003 [cal/(mol K)]        0.013 [J/(mol K)]       0.00000503 [mEh/K]
  Total S                  46.976 [cal/(mol K)]      196.546 [J/(mol K)]       0.07486033 [mEh/K]
  Correction S              0.000 [cal/(mol K)]        0.000 [J/(mol K)]       0.00000000 [mEh/K]

  Constant volume heat capacity, Cv
    Electronic Cv           0.000 [cal/(mol K)]        0.000 [J/(mol K)]       0.00000000 [mEh/K]
    Translational Cv        2.981 [cal/(mol K)]       12.472 [J/(mol K)]       0.00475022 [mEh/K]
    Rotational Cv           1.987 [cal/(mol K)]        8.314 [J/(mol K)]       0.00316681 [mEh/K]
    Vibrational Cv          0.025 [cal/(mol K)]        0.103 [J/(mol K)]       0.00003935 [mEh/K]
  Total Cv                  4.993 [cal/(mol K)]       20.889 [J/(mol K)]       0.00795638 [mEh/K]
  Correction Cv             0.000 [cal/(mol K)]        0.000 [J/(mol K)]       0.00000000 [mEh/K]

  Constant pressure heat capacity, Cp
    Electronic Cp           0.000 [cal/(mol K)]        0.000 [J/(mol K)]       0.00000000 [mEh/K]
    Translational Cp        4.968 [cal/(mol K)]       20.786 [J/(mol K)]       0.00791703 [mEh/K]
    Rotational Cp           1.987 [cal/(mol K)]        8.314 [J/(mol K)]       0.00316681 [mEh/K]
    Vibrational Cp          0.025 [cal/(mol K)]        0.103 [J/(mol K)]       0.00003935 [mEh/K]
  Total Cp                  6.980 [cal/(mol K)]       29.204 [J/(mol K)]       0.01112319 [mEh/K]
  Correction Cp             0.000 [cal/(mol K)]        0.000 [J/(mol K)]       0.00000000 [mEh/K]

  ==> Thermochemistry Energy Analysis <==

  Raw electronic energy, E0
  Total E0, Electronic energy at well bottom at 0 [K]                -1640.90107555 [Eh]

  Zero-point energy, ZPE_vib = Sum_i nu_i / 2
    Electronic ZPE          0.000 [kcal/mol]        0.000 [kJ/mol]       0.00000000 [Eh]
    Translational ZPE       0.000 [kcal/mol]        0.000 [kJ/mol]       0.00000000 [Eh]
    Rotational ZPE          0.000 [kcal/mol]        0.000 [kJ/mol]       0.00000000 [Eh]
    Vibrational ZPE         2.583 [kcal/mol]       10.808 [kJ/mol]       0.00411638 [Eh]         903.440 [cm^-1]
  Correction ZPE            2.583 [kcal/mol]       10.808 [kJ/mol]       0.00411638 [Eh]         903.440 [cm^-1]
  Total ZPE, Electronic energy at 0 [K]                              -1640.89695917 [Eh]

  Thermal Energy, E (includes ZPE)
    Electronic E            0.000 [kcal/mol]        0.000 [kJ/mol]       0.00000000 [Eh]
    Translational E         0.889 [kcal/mol]        3.718 [kJ/mol]       0.00141628 [Eh]
    Rotational E            0.592 [kcal/mol]        2.479 [kJ/mol]       0.00094418 [Eh]
    Vibrational E           2.584 [kcal/mol]       10.811 [kJ/mol]       0.00411772 [Eh]
  Correction E              4.065 [kcal/mol]       17.008 [kJ/mol]       0.00647818 [Eh]
  Total E, Electronic energy at  298.15 [K]                          -1640.89459736 [Eh]

  Enthalpy, H_trans = E_trans + k_B * T
    Electronic H            0.000 [kcal/mol]        0.000 [kJ/mol]       0.00000000 [Eh]
    Translational H         1.481 [kcal/mol]        6.197 [kJ/mol]       0.00236046 [Eh]
    Rotational H            0.592 [kcal/mol]        2.479 [kJ/mol]       0.00094418 [Eh]
    Vibrational H           2.584 [kcal/mol]       10.811 [kJ/mol]       0.00411772 [Eh]
  Correction H              4.658 [kcal/mol]       19.487 [kJ/mol]       0.00742237 [Eh]
  Total H, Enthalpy at  298.15 [K]                                   -1640.89365318 [Eh]

  Gibbs free energy, G = H - T * S
    Electronic G            0.000 [kcal/mol]        0.000 [kJ/mol]       0.00000000 [Eh]
    Translational G        -9.963 [kcal/mol]      -41.686 [kJ/mol]      -0.01587739 [Eh]
    Rotational G           -1.968 [kcal/mol]       -8.234 [kJ/mol]      -0.00313608 [Eh]
    Vibrational G           2.583 [kcal/mol]       10.807 [kJ/mol]       0.00411622 [Eh]
  Correction G             -9.348 [kcal/mol]      -39.113 [kJ/mol]      -0.01489724 [Eh]
  Total G, Free enthalpy at  298.15 [K]                              -1640.91597279 [Eh]

*** Psi4 exiting successfully. Buy a developer a beer!
