                         Program Version 4.2.0 -  RELEASE  -
|  1> # input to generate an atomic fitting density for Ag
|  2> # this file is use internally by ORCA
|  3> #
|  4> # atomic ground state (S=2): 1s2 2s2 2p6 3s2 3p6 4s2 3d10 4p6 5s2 4d9
|  5> #
|  6> ! RHF AllowRHF def2-SVP def2/J  NoMulliken NoLoewdin NoMayer NoPrintMOs
|  7>
|  8> %output print[p_atomdensfit] 2 end
|  9>
| 10> %scf
| 11>   guess hcore
| 12>   maxiter 1000
| 13>   maxdisk 500000
| 14>   SCFMode Conventional
| 15>   lshift 1.000000
| 16>   hftyp rohf
| 17>   rohf_case sahf
| 18>   rohf_numop   2
| 19>   rohf_norb[1] 5
| 20>   rohf_nel[1]  9
| 21> end
| 22>
| 23> %basis
| 24>   NewECP 47
| 25>     N_core 28
| 26>     lmax f
| 27>     s 4
| 28>       1      13.1300000000    255.1393645000  2
| 29>       2       6.5100000000     36.8661215000  2
| 30>       3      14.2200000000     33.6899201000  2
| 31>       4       7.1100000000      5.5311202000  2
| 32>     p 4
| 33>       1      11.7400000000    182.1818687000  2
| 34>       2       6.2000000000     30.3577515000  2
| 35>       3      14.2200000000     33.6899201000  2
| 36>       4       7.1100000000      5.5311202000  2
| 37>     d 4
| 38>       1      10.2100000000     73.7192609000  2
| 39>       2       4.3800000000     12.5021171000  2
| 40>       3      14.2200000000     33.6899201000  2
| 41>       4       7.1100000000      5.5311202000  2
| 42>     f 2
| 43>       1      14.2200000000    -33.6899201000  2
| 44>       2       7.1100000000     -5.5311202000  2
| 45>   end
| 46>   NewGTO 47
| 47>     s 4
| 48>      1     256.5089838100      0.0087053886
| 49>      2      19.0000000000     -1.7486823983
| 50>      3      14.1297497370      5.6971512128
| 51>      4       9.4840599768     -3.2021126602
| 52>     s 1
| 53>      1       5.5812682897      1.0000000000
| 54>     s 1
| 55>      1       1.4763753299      1.0000000000
| 56>     s 1
| 57>      1       0.6618458433      1.0000000000
| 58>     s 1
| 59>      1       0.1538217174      1.0000000000
| 60>     s 1
| 61>      1       0.0795342487      1.0000000000
| 62>     s 1
| 63>      1       0.0324086245      1.0000000000
| 64>     p 4
| 65>      1      13.3503895370      0.0766730800
| 66>      2       7.7163302467     -0.2994154880
| 67>      3       2.0864535219      0.5576270061
| 68>      4       1.0577805733      0.5842288878
| 69>     p 1
| 70>      1       0.5256442766      1.0000000000
| 71>     p 1
| 72>      1       0.2369490889      1.0000000000
| 73>     p 1
| 74>      1       0.0664579803      1.0000000000
| 75>     p 1
| 76>      1       0.0218648393      1.0000000000
| 77>     d 4
| 78>      1      32.1479612740      0.0043282957
| 79>      2       9.0323725307     -0.0352318892
| 80>      3       3.1673540854      0.3380959130
| 81>      4       1.5519381135      0.7221210980
| 82>     d 1
| 83>      1       0.7131028400      1.0000000000
| 84>     d 1
| 85>      1       0.3074974155      1.0000000000
| 86>     d 1
| 87>      1       0.1209430421      1.0000000000
| 88>   end
| 89>   NewAuxGTO 47
| 90>     S 1
| 91>      1 1310.72 1.0
| 92>     S 1
| 93>      1  655.36 1.0
| 94>     S 1
| 95>      1  327.68 1.0
| 96>     S 1
| 97>      1  163.84 1.0
| 98>     S 1
| 99>      1   81.82 1.0
|100>     S 1
|101>      1   40.96 1.0
|102>     S 1
|103>      1   20.48 1.0
|104>     S 1
|105>      1   10.24 1.0
|106>     S 1
|107>      1    5.12 1.0
|108>     S 1
|109>      1    2.56 1.0
|110>     S 1
|111>      1    1.28 1.0
|112>     S 1
|113>      1    0.64 1.0
|114>     S 1
|115>      1    0.32 1.0
|116>     S 1
|117>      1    0.16 1.0
|118>     S 1
|119>      1    0.08 1.0
|120>     S 1
|121>      1    0.04 1.0
|122>     S 1
|123>      1    0.02 1.0
|124>     S 1
|125>      1    0.01 1.0
|126>   end
|127> end
|128>
|129> * xyz 0 2
|130> 47  0.0 0.0 0.0
|131> *
|132>
|133>
|134>                          ****END OF INPUT****

CARTESIAN COORDINATES (ANGSTROEM)
---------------------------------
  Ag     0.000000    0.000000    0.000000

 Total Charge           Charge          ....    0
 Multiplicity           Mult            ....    2
 Number of Electrons    NEL             ....   19
 Basis Dimension        Dim             ....   42

ORBITAL ENERGIES
----------------

  NO   OCC          E(Eh)            E(eV)
   0   2.0000      -4.470706      -121.6541
   1   2.0000      -2.912361       -79.2494
   2   2.0000      -2.910118       -79.1883
   3   2.0000      -2.909806       -79.1799
   4   2.0000      -0.626577       -17.0500
   5   1.8000      -0.631761       -17.1911
   6   1.8000      -0.629664       -17.1340
   7   1.8000      -0.628660       -17.1067
   8   1.8000      -0.621469       -16.9110
   9   1.8000      -0.273490        -7.4420
  10   0.0000       0.013646         0.3713
  11   0.0000       0.014277         0.3885
  12   0.0000       0.014364         0.3909
  13   0.0000       0.083314         2.2671
  14   0.0000       0.108734         2.9588

CleanUpVectors: The p-vectors have cracked symmetry
CleanUpVectors: The p-vectors have cracked symmetry
CleanUpVectors: The p-vectors have cracked symmetry
CleanUpVectors: The d-vectors have cracked symmetry at i=4
CleanUpVectors: The d-vectors have cracked symmetry at i=5
CleanUpVectors: The d-vectors have cracked symmetry at i=6
CleanUpVectors: The d-vectors have cracked symmetry at i=7
CleanUpVectors: The d-vectors have cracked symmetry at i=8
CleanUpVectors: The p-vectors have cracked symmetry
CleanUpVectors: The p-vectors have cracked symmetry
CleanUpVectors: The p-vectors have cracked symmetry
CleanUpVectors: The p-vectors have cracked symmetry
CleanUpVectors: The p-vectors have cracked symmetry
CleanUpVectors: The p-vectors have cracked symmetry
CleanUpVectors: The d-vectors have cracked symmetry at i=17
CleanUpVectors: The d-vectors have cracked symmetry at i=18
CleanUpVectors: The d-vectors have cracked symmetry at i=19
CleanUpVectors: The d-vectors have cracked symmetry at i=20
CleanUpVectors: The d-vectors have cracked symmetry at i=21
CleanUpVectors: The p-vectors have cracked symmetry
CleanUpVectors: The p-vectors have cracked symmetry
CleanUpVectors: The p-vectors have cracked symmetry
CleanUpVectors: The d-vectors have cracked symmetry at i=26
CleanUpVectors: The d-vectors have cracked symmetry at i=27
CleanUpVectors: The d-vectors have cracked symmetry at i=28
CleanUpVectors: The d-vectors have cracked symmetry at i=29
CleanUpVectors: The d-vectors have cracked symmetry at i=30
CleanUpVectors: The p-vectors have cracked symmetry
CleanUpVectors: The p-vectors have cracked symmetry
CleanUpVectors: The p-vectors have cracked symmetry
CleanUpVectors: The d-vectors have cracked symmetry at i=35
CleanUpVectors: The d-vectors have cracked symmetry at i=36
CleanUpVectors: The d-vectors have cracked symmetry at i=37
--------------------------
ATOM BASIS FOR ELEMENT Ag
--------------------------
 NewGTO Ag
 S 10
    1        256.508983810000         0.000681315814
    2         19.000000000000        -0.136858332975
    3         14.129749737000         0.445880062866
    4          9.484059976800        -0.250609144975
    5          5.581268289700        -0.584898982195
    6          1.476375329900         0.864804512642
    7          0.661845843300         0.457255689193
    8          0.153821717400         0.018004151456
    9          0.079534248700        -0.000397365222
   10          0.032408624500         0.003129165717
 P 24
    1         13.350389537000        -0.025227784729
    2          7.716330246700         0.098516838973
    3          2.086453521900        -0.183476313579
    4          1.057780573300        -0.192229145016
    5         13.350389537000        -0.058019707426
    6          7.716330246700         0.226572338199
    7          2.086453521900        -0.421964994058
    8          1.057780573300        -0.442095050047
    9         13.350389537000        -0.005866611197
   10          7.716330246700         0.022909660790
   11          2.086453521900        -0.042666615686
   12          1.057780573300        -0.044702048422
   13          0.525644276600        -0.077357895367
   14          0.525644276600        -0.177910288375
   15          0.525644276600        -0.017989240832
   16          0.236949088900        -0.008316023208
   17          0.236949088900        -0.019125469741
   18          0.236949088900        -0.001933854890
   19          0.066457980300        -0.000464114926
   20          0.066457980300        -0.001067387108
   21          0.066457980300        -0.000107927900
   22          0.021864839300         0.000077027687
   23          0.021864839300         0.000177150864
   24          0.021864839300         0.000017912452
 D 25
    1        256.508983810000         0.000000000274
    2         19.000000000000        -0.000000743522
    3         14.129749737000         0.000003257316
    4          9.484059976800        -0.000002727589
    5          5.581268289700        -0.000011922237
    6          1.476375329900         0.000096465737
    7          0.661845843300         0.000028492894
    8          0.153821717400        -0.000634535133
    9          0.079534248700        -0.000223969919
   10          0.032408624500        -0.000656433538
   11         32.147961274000         0.001573830524
   12          9.032372530700        -0.012810821272
   13          3.167354085400         0.122936533138
   14          1.551938113500         0.262573609679
   15         32.147961274000        -0.000917117793
   16          9.032372530700         0.007465246074
   17          3.167354085400        -0.071638769434
   18          1.551938113500        -0.153009441564
   19         32.147961274000         0.000624994839
   20          9.032372530700        -0.005087394773
   21          3.167354085400         0.048820185904
   22          1.551938113500         0.104272441321
   23         32.147961274000         0.001168590794
   24          9.032372530700        -0.009512210864
   25          3.167354085400         0.091282065470
 S 10
    1        256.508983810000        -0.000178577401
    2         19.000000000000         0.035871478316
    3         14.129749737000        -0.116868126763
    4          9.484059976800         0.065686321866
    5          5.581268289700         0.180812675903
    6          1.476375329900        -0.155173491638
    7          0.661845843300        -1.124644162302
    8          0.153821717400         5.252935527817
    9          0.079534248700        -5.873349497043
   10          0.032408624500         1.792802324061
 S 10
    1        256.508983810000         0.001061426351
    2         19.000000000000        -0.213212489683
    3         14.129749737000         0.694639458464
    4          9.484059976800        -0.390425621708
    5          5.581268289700        -1.014917824414
    6          1.476375329900         4.248341620869
    7          0.661845843300        -4.791793482087
    8          0.153821717400         3.877794472639
    9          0.079534248700        -3.020263159697
   10          0.032408624500         0.769166896446
 D 25
    1         32.147961274000         0.001399823652
    2          9.032372530700        -0.011394422934
    3          3.167354085400         0.109344344359
    4          1.551938113500         0.233542775799
    5         32.147961274000         0.001495042493
    6          9.032372530700        -0.012169494676
    7          3.167354085400         0.116782168281
    8          1.551938113500         0.249428828753
    9         32.147961274000         0.000309041311
   10          9.032372530700        -0.002515565017
   11          3.167354085400         0.024140126185
   12          1.551938113500         0.051559612987
   13         32.147961274000        -0.000864511389
   14          9.032372530700         0.007037035263
   15          3.167354085400        -0.067529528389
   16          1.551938113500        -0.144232731933
   17         32.147961274000         0.000193944423
   18          9.032372530700        -0.001578687983
   19          3.167354085400         0.015149569522
   20          1.551938113500         0.032357160665
   21          0.713102840000         0.241178123614
   22          0.713102840000         0.257583548401
   23          0.713102840000         0.053245280964
   24          0.713102840000        -0.148948215300
   25          0.713102840000         0.033415031863
 P 24
    1         13.350389537000        -0.005337599252
    2          7.716330246700         0.020843820084
    3          2.086453521900        -0.038819224304
    4          1.057780573300        -0.040671115266
    5         13.350389537000        -0.012275590199
    6          7.716330246700         0.047937318154
    7          2.086453521900        -0.089277757076
    8          1.057780573300        -0.093536798167
    9         13.350389537000        -0.001241235403
   10          7.716330246700         0.004847139359
   11          2.086453521900        -0.009027241132
   12          1.057780573300        -0.009457890290
   13          0.525644276600         0.000374793295
   14          0.525644276600         0.000861962220
   15          0.525644276600         0.000087156544
   16          0.236949088900        -0.019645903702
   17          0.236949088900        -0.045182309788
   18          0.236949088900        -0.004568569134
   19          0.066457980300         0.567955746192
   20          0.066457980300         1.306203718575
   21          0.066457980300         0.132075629147
   22          0.021864839300        -0.425188534000
   23          0.021864839300        -0.977862884441
   24          0.021864839300        -0.098875737257
 D 25
    1        256.508983810000        -0.000000000980
    2         19.000000000000         0.000002657362
    3         14.129749737000        -0.000011641707
    4          9.484059976800         0.000009748453
    5          5.581268289700         0.000042927253
    6          1.476375329900        -0.000350787817
    7          0.661845843300        -0.000260674286
    8          0.153821717400         0.003388386903
    9          0.079534248700         0.006004865485
   10          0.032408624500        -0.006599800073
   11         32.147961274000        -0.000172380451
   12          9.032372530700         0.001403159436
   13          3.167354085400        -0.013465144263
   14          1.551938113500        -0.028759486247
   15         32.147961274000         0.000463746227
   16          9.032372530700        -0.003774847380
   17          3.167354085400         0.036224582343
   18          1.551938113500         0.077370160863
   19         32.147961274000         0.000060311781
   20          9.032372530700        -0.000490931798
   21          3.167354085400         0.004711130690
   22          1.551938113500         0.010062253744
   23         32.147961274000         0.000569186440
   24          9.032372530700        -0.004633120048
   25          3.167354085400         0.044460827628
 P 24
    1         13.350389537000        -0.007931966175
    2          7.716330246700         0.030975063516
    3          2.086453521900        -0.057687503234
    4          1.057780573300        -0.060439515098
    5         13.350389537000        -0.018242202464
    6          7.716330246700         0.071237492391
    7          2.086453521900        -0.132671659270
    8          1.057780573300        -0.139000828672
    9         13.350389537000        -0.001844544104
   10          7.716330246700         0.007203115788
   11          2.086453521900        -0.013414977021
   12          1.057780573300        -0.014054945365
   13          0.525644276600        -0.320319769572
   14          0.525644276600        -0.736682174541
   15          0.525644276600        -0.074488963939
   16          0.236949088900         0.848144984167
   17          0.236949088900         1.950592347446
   18          0.236949088900         0.197232413176
   19          0.066457980300        -0.575990800649
   20          0.066457980300        -1.324683006938
   21          0.066457980300        -0.133944145989
   22          0.021864839300         0.211744765276
   23          0.021864839300         0.486977729598
   24          0.021864839300         0.049240320715
 D 25
    1        256.508983810000        -0.000000001286
    2         19.000000000000         0.000003488783
    3         14.129749737000        -0.000015284101
    4          9.484059976800         0.000012798496
    5          5.581268289700         0.000059730775
    6          1.476375329900        -0.000501723183
    7          0.661845843300        -0.000455864948
    8          0.153821717400         0.015021143546
    9          0.079534248700        -0.024546456214
   10          0.032408624500         0.015756909635
   11         32.147961274000        -0.000267811351
   12          9.032372530700         0.002179957308
   13          3.167354085400        -0.020919532649
   14          1.551938113500        -0.044680918359
   15         32.147961274000         0.000722564152
   16          9.032372530700        -0.005881599107
   17          3.167354085400         0.056441611996
   18          1.551938113500         0.120550640397
   19         32.147961274000         0.000094439809
   20          9.032372530700        -0.000768730496
   21          3.167354085400         0.007376971401
   22          1.551938113500         0.015756081288
   23         32.147961274000         0.000888293041
   24          9.032372530700        -0.007230615508
   25          3.167354085400         0.069387183236
 P 24
    1         13.350389537000        -0.054835032257
    2          7.716330246700         0.214135886319
    3          2.086453521900        -0.398803528783
    4          1.057780573300        -0.417828655218
    5         13.350389537000        -0.126111450615
    6          7.716330246700         0.492476910128
    7          2.086453521900        -0.917181762382
    8          1.057780573300        -0.960936387738
    9         13.350389537000        -0.012751647349
   10          7.716330246700         0.049796365474
   11          2.086453521900        -0.092740019493
   12          1.057780573300        -0.097164229584
   13          0.525644276600         1.360276353866
   14          0.525644276600         3.128409288080
   15          0.525644276600         0.316326327299
   16          0.236949088900        -0.918519988877
   17          0.236949088900        -2.112443149016
   18          0.236949088900        -0.213597813273
   19          0.066457980300         0.296564394227
   20          0.066457980300         0.682048763677
   21          0.066457980300         0.068964755115
   22          0.021864839300        -0.099489398705
   23          0.021864839300        -0.228809063754
   24          0.021864839300        -0.023135825311
 D 25
    1        256.508983810000        -0.000000003999
    2         19.000000000000         0.000010845646
    3         14.129749737000        -0.000047513974
    4          9.484059976800         0.000039786927
    5          5.581268289700         0.000182963880
    6          1.476375329900        -0.002761901629
    7          0.661845843300         0.006388554765
    8          0.153821717400        -0.018286350762
    9          0.079534248700         0.026464141107
   10          0.032408624500        -0.016001950244
   11         32.147961274000        -0.001422057543
   12          9.032372530700         0.011575404562
   13          3.167354085400        -0.111081099043
   14          1.551938113500        -0.237252217857
   15         32.147961274000         0.003842024013
   16          9.032372530700        -0.031273686853
   17          3.167354085400         0.300111800691
   18          1.551938113500         0.640992850563
   19         32.147961274000         0.000503333966
   20          9.032372530700        -0.004097087574
   21          3.167354085400         0.039316897148
   22          1.551938113500         0.083974871766
   23         32.147961274000         0.004726869744
   24          9.032372530700        -0.038476241603
   25          3.167354085400         0.369229704362
 S 25
    1        256.508983810000         0.007650646765
    2         19.000000000000        -1.536812651138
    3         14.129749737000         5.006886366436
    4          9.484059976800        -2.814145811353
    5          5.581268289700        -2.234230225896
    6          1.476375329900         2.420891822104
    7          0.661845843300        -1.665892194588
    8          0.153821717400         0.962870356147
    9          0.079534248700        -0.742776982595
   10          0.032408624500         0.192790199181
   11         32.147961274000         0.000010868617
   12          9.032372530700        -0.000024856599
   13          3.167354085400         0.000083645093
   14          1.551938113500         0.000087536336
   15         32.147961274000        -0.000021426091
   16          9.032372530700         0.000049001612
   17          3.167354085400        -0.000164895624
   18          1.551938113500        -0.000172566713
   19         32.147961274000        -0.000001033347
   20          9.032372530700         0.000002363271
   21          3.167354085400        -0.000007952657
   22          1.551938113500        -0.000008322622
   23         32.147961274000        -0.000020893405
   24          9.032372530700         0.000047783354
   25          3.167354085400        -0.000160796057
 S 25
    1        256.508983810000         0.009292102792
    2         19.000000000000        -1.866537766700
    3         14.129749737000         6.081120226078
    4          9.484059976800        -3.417924386556
    5          5.581268289700        -0.259343866772
    6          1.476375329900         0.611506052259
    7          0.661845843300        -0.416027611392
    8          0.153821717400         0.241856417258
    9          0.079534248700        -0.187303606741
   10          0.032408624500         0.048801595873
   11         32.147961274000         0.000000502570
   12          9.032372530700        -0.000001149382
   13          3.167354085400         0.000003867791
   14          1.551938113500         0.000004047724
   15         32.147961274000        -0.000000991637
   16          9.032372530700         0.000002267881
   17          3.167354085400        -0.000007631661
   18          1.551938113500        -0.000007986693
   19         32.147961274000        -0.000000048096
   20          9.032372530700         0.000000109996
   21          3.167354085400        -0.000000370147
   22          1.551938113500        -0.000000387366
   23         32.147961274000        -0.000000967818
   24          9.032372530700         0.000002213407
   25          3.167354085400        -0.000007448349
 end
  // -----------------------------------------------
  // The basis set
  // -----------------------------------------------
  BAS[ATNO] = new BFNGauss[NSH];
  // Basis function   1 L = s
  InitBFNGauss(BAS[ATNO][  0]);
  BAS[ATNO][  0].l  = 0;
  BAS[ATNO][  0].ng = 10;
  BAS[ATNO][  0].a[  0] =       256.508983810000;     BAS[ATNO][  0].d[  0] =         0.000681315814;
  BAS[ATNO][  0].a[  1] =        19.000000000000;     BAS[ATNO][  0].d[  1] =        -0.136858332975;
  BAS[ATNO][  0].a[  2] =        14.129749737000;     BAS[ATNO][  0].d[  2] =         0.445880062866;
  BAS[ATNO][  0].a[  3] =         9.484059976800;     BAS[ATNO][  0].d[  3] =        -0.250609144975;
  BAS[ATNO][  0].a[  4] =         5.581268289700;     BAS[ATNO][  0].d[  4] =        -0.584898982195;
  BAS[ATNO][  0].a[  5] =         1.476375329900;     BAS[ATNO][  0].d[  5] =         0.864804512642;
  BAS[ATNO][  0].a[  6] =         0.661845843300;     BAS[ATNO][  0].d[  6] =         0.457255689193;
  BAS[ATNO][  0].a[  7] =         0.153821717400;     BAS[ATNO][  0].d[  7] =         0.018004151456;
  BAS[ATNO][  0].a[  8] =         0.079534248700;     BAS[ATNO][  0].d[  8] =        -0.000397365222;
  BAS[ATNO][  0].a[  9] =         0.032408624500;     BAS[ATNO][  0].d[  9] =         0.003129165717;

FINAL SINGLE POINT ENERGY      -145.993551763794

DIPOLE MOMENT
-------------
                                X             Y             Z
Electronic contribution:      0.00000      -0.00000       0.00000
Nuclear contribution   :      0.00000       0.00000       0.00000
                        -----------------------------------------
Total Dipole Moment    :      0.00000      -0.00000       0.00000
                        -----------------------------------------
Magnitude (a.u.)       :      0.00000
Magnitude (Debye)      :      0.00000

Rotational constants in cm-1:     0.000000     0.000000     0.000000
Rotational constants in MHz :     0.000000     0.000000     0.000000

                             ****ORCA TERMINATED NORMALLY****
TOTAL RUN TIME: 0 days 0 hours 0 minutes 1 seconds 113 msec
