                         Program Version 4.2.0 -  RELEASE  -
|  1> #
|  2> # Ag02N0 TPSS-D3BJ/Def2-TZVPPD
|  3> #
|  4> ! tpss d3bj def2-tzvppd def2/j grid4 nofinalgrid opt xyzfile numfreq
|  5>
|  6> *xyz 0 1
|  7> Ag       0.000000    0.000000    1.261821
|  8> Ag       0.000000    0.000000   -1.261821
|  9> *
| 10>
| 11> %maxcore 5000
| 12>
| 13> %pal
| 14> nprocs = 24
| 15> end
| 16>
| 17>
| 18>                          ****END OF INPUT****
 Total Charge           Charge          ....    0
 Multiplicity           Mult            ....    1
 Number of Electrons    NEL             ....   38
Dispersion correction           -0.001943686
FINAL SINGLE POINT ENERGY      -293.890736821971
Dispersion correction            ... done
Dispersion correction           -0.001943617
FINAL SINGLE POINT ENERGY      -293.890753553590
Dispersion correction            ... done
Dispersion correction           -0.001942898
FINAL SINGLE POINT ENERGY      -293.890849810344
Dispersion correction            ... done
Dispersion correction           -0.001942856
FINAL SINGLE POINT ENERGY      -293.890850408998
Dispersion correction            ... done
                    ***********************HURRAY********************

CARTESIAN COORDINATES (ANGSTROEM)
---------------------------------
  Ag     0.000000    0.000000    1.276048
  Ag     0.000000    0.000000   -1.276048

 Multiplicity           Mult            ....    1
 Number of Electrons    NEL             ....   38
 Basis Dimension        Dim             ....  112

ORBITAL ENERGIES
----------------

  NO   OCC          E(Eh)            E(eV)
   0   2.0000      -3.580380       -97.4271
   1   2.0000      -3.579840       -97.4124
   2   2.0000      -2.207990       -60.0824
   3   2.0000      -2.202152       -59.9236
   4   2.0000      -2.201301       -59.9004
   5   2.0000      -2.201301       -59.9004
   6   2.0000      -2.200747       -59.8854
   7   2.0000      -2.200747       -59.8854
   8   2.0000      -0.300804        -8.1853
   9   2.0000      -0.282108        -7.6766
  10   2.0000      -0.282108        -7.6766
  11   2.0000      -0.261904        -7.1268
  12   2.0000      -0.261899        -7.1266
  13   2.0000      -0.254425        -6.9233
  14   2.0000      -0.254420        -6.9231
  15   2.0000      -0.244672        -6.6579
  16   2.0000      -0.244672        -6.6579
  17   2.0000      -0.239058        -6.5051
  18   2.0000      -0.186911        -5.0861
  19   0.0000      -0.106594        -2.9006
  20   0.0000      -0.030590        -0.8324
  21   0.0000      -0.030590        -0.8324
  22   0.0000      -0.013031        -0.3546
  23   0.0000       0.031966         0.8698

MULLIKEN ATOMIC CHARGES
-----------------------
   0 Ag:    0.000000
   1 Ag:   -0.000000
Sum of atomic charges:   -0.0000000

LOEWDIN ATOMIC CHARGES
----------------------
   0 Ag:    0.000000
   1 Ag:   -0.000000

  Mayer bond orders larger than 0.100000
B(  0-Ag,  1-Ag) :   1.0672

Dispersion correction           -0.001942853
FINAL SINGLE POINT ENERGY      -293.890850436719

DIPOLE MOMENT
-------------
                                X             Y             Z
Electronic contribution:      0.00000       0.00000       0.00000
Nuclear contribution   :      0.00000       0.00000       0.00000
                        -----------------------------------------
Total Dipole Moment    :      0.00000       0.00000       0.00000
                        -----------------------------------------
Magnitude (a.u.)       :      0.00000
Magnitude (Debye)      :      0.00000

VIBRATIONAL FREQUENCIES
-----------------------

Scaling factor for frequencies =  1.000000000 (already applied!)

   0:         0.00 cm**-1
   1:         0.00 cm**-1
   2:         0.00 cm**-1
   3:         0.00 cm**-1
   4:         0.00 cm**-1
   5:       186.68 cm**-1

IR SPECTRUM
-----------

 Mode    freq (cm**-1)   T**2         TX         TY         TZ
-------------------------------------------------------------------
   5:       186.68    0.000000  (  0.000013   0.000006  -0.000021)

--------------------------
THERMOCHEMISTRY AT 298.15K
--------------------------

Temperature         ... 298.15 K
Pressure            ... 1.00 atm
Total Mass          ... 215.74 AMU
The molecule is recognized as being linear

Throughout the following assumptions are being made:
  (1) The electronic state is orbitally nondegenerate
  (2) There are no thermally accessible electronically excited states
  (3) Hindered rotations indicated by low frequency modes are not
      treated as such but are treated as vibrations and this may
      cause some error
  (4) All equations used are the standard statistical mechanics
      equations for an ideal gas
  (5) All vibrations are strictly harmonic

freq.     186.68  E(vib)   ...       0.37

------------
INNER ENERGY
------------

The inner energy is: U= E(el) + E(ZPE) + E(vib) + E(rot) + E(trans)
    E(el)   - is the total energy from the electronic structure calculation
              = E(kin-el) + E(nuc-el) + E(el-el) + E(nuc-nuc)
    E(ZPE)  - the the zero temperature vibrational energy from the frequency calculation
    E(vib)  - the the finite temperature correction to E(ZPE) due to population
              of excited vibrational states
    E(rot)  - is the rotational thermal energy
    E(trans)- is the translational thermal energy

Summary of contributions to the inner energy U:
Electronic energy                ...   -293.89085044 Eh
Zero point energy                ...      0.00042528 Eh       0.27 kcal/mol
Thermal vibrational correction   ...      0.00058193 Eh       0.37 kcal/mol
Thermal rotational correction    ...      0.00094418 Eh       0.59 kcal/mol
Thermal translational correction ...      0.00141627 Eh       0.89 kcal/mol
-----------------------------------------------------------------------
Total thermal energy                   -293.88748277 Eh

Summary of corrections to the electronic energy:
(perhaps to be used in another calculation)
Total thermal correction                  0.00294238 Eh       1.85 kcal/mol
Non-thermal (ZPE) correction              0.00042528 Eh       0.27 kcal/mol
-----------------------------------------------------------------------
Total correction                          0.00336766 Eh       2.11 kcal/mol

--------
ENTHALPY
--------

The enthalpy is H = U + kB*T
                kB is Boltzmann's constant
Total free energy                 ...   -293.88748277 Eh
Thermal Enthalpy correction       ...      0.00094421 Eh       0.59 kcal/mol
-----------------------------------------------------------------------
Total Enthalpy                    ...   -293.88653856 Eh

Note: Rotational entropy computed according to Herzberg
Infrared and Raman Spectra, Chapter V,1, Van Nostrand Reinhold, 1945
Point Group:  Dinfh, Symmetry Number:   2
Rotational constants in cm-1:     0.000000     0.047988     0.047988

Vibrational entropy computed according to the QRRHO of S. Grimme
Chem.Eur.J. 2012 18 9955

-------
ENTROPY
-------

The entropy contributions are T*S = T*(S(el)+S(vib)+S(rot)+S(trans))
     S(el)   - electronic entropy
     S(vib)  - vibrational entropy
     S(rot)  - rotational entropy
     S(trans)- translational entropy
The entropies will be listed as mutliplied by the temperature to get
units of energy

Electronic entropy                ...      0.00000000 Eh      0.00 kcal/mol
Vibrational entropy               ...      0.00107316 Eh      0.67 kcal/mol
Rotational entropy                ...      0.00819310 Eh      5.14 kcal/mol
Translational entropy             ...      0.01996022 Eh     12.53 kcal/mol
-----------------------------------------------------------------------
Final entropy term                ...      0.02922648 Eh     18.34 kcal/mol

In case the symmetry of your molecule has not been determined correctly
or in case you have a reason to use a different symmetry number we print
out the resulting rotational entropy values for sn=1,12 :
 --------------------------------------------------------
|  sn= 1 | S(rot)=             -inf Eh      -inf kcal/mol|
|  sn= 2 | S(rot)=             -inf Eh      -inf kcal/mol|
|  sn= 3 | S(rot)=             -inf Eh      -inf kcal/mol|
|  sn= 4 | S(rot)=             -inf Eh      -inf kcal/mol|
|  sn= 5 | S(rot)=             -inf Eh      -inf kcal/mol|
|  sn= 6 | S(rot)=             -inf Eh      -inf kcal/mol|
|  sn= 7 | S(rot)=             -inf Eh      -inf kcal/mol|
|  sn= 8 | S(rot)=             -inf Eh      -inf kcal/mol|
|  sn= 9 | S(rot)=             -inf Eh      -inf kcal/mol|
|  sn=10 | S(rot)=             -inf Eh      -inf kcal/mol|
|  sn=11 | S(rot)=             -inf Eh      -inf kcal/mol|
|  sn=12 | S(rot)=             -inf Eh      -inf kcal/mol|
 --------------------------------------------------------

-------------------
GIBBS FREE ENERGY
-------------------

The Gibbs free energy is G = H - T*S

Total enthalpy                    ...   -293.88653856 Eh
Total entropy correction          ...     -0.02922648 Eh    -18.34 kcal/mol
-----------------------------------------------------------------------
Final Gibbs free energy         ...   -293.91576505 Eh

For completeness - the Gibbs free energy minus the electronic energy
G-E(el)                           ...     -0.02491461 Eh    -15.63 kcal/mol

                             ****ORCA TERMINATED NORMALLY****
TOTAL RUN TIME: 0 days 0 hours 0 minutes 30 seconds 798 msec
