                         Program Version 4.2.0 -  RELEASE  -
|  1> #
|  2> # Ag03N0_LIN TPSS-D3BJ/Def2-TZVPPD
|  3> #
|  4> ! tpss d3bj def2-tzvppd def2/j grid4 nofinalgrid opt xyzfile numfreq
|  5>
|  6> *xyz 0 2
|  7> Ag       0.000000    0.000000    0.000000
|  8> Ag       0.000000    0.000000    2.592532
|  9> Ag       0.000000    0.000000   -2.592532
| 10> *
| 11>
| 12> %maxcore 5000
| 13>
| 14> %pal
| 15> nprocs = 24
| 16> end
| 17>
| 18>
| 19>                          ****END OF INPUT****
 Total Charge           Charge          ....    0
 Multiplicity           Mult            ....    2
 Number of Electrons    NEL             ....   57
Dispersion correction           -0.004456635
FINAL SINGLE POINT ENERGY      -440.835218299563
Dispersion correction            ... done
Dispersion correction           -0.004454654
FINAL SINGLE POINT ENERGY      -440.835231760672
Dispersion correction            ... done
Dispersion correction           -0.004430817
FINAL SINGLE POINT ENERGY      -440.835315671431
Dispersion correction            ... done
                    ***********************HURRAY********************

CARTESIAN COORDINATES (ANGSTROEM)
---------------------------------
  Ag    -0.000000   -0.000000   -0.000000
  Ag     0.000000    0.000000    2.614566
  Ag     0.000000    0.000000   -2.614566

 Multiplicity           Mult            ....    2
 Number of Electrons    NEL             ....   57
 Basis Dimension        Dim             ....  168

ORBITAL ENERGIES
----------------
                 SPIN UP ORBITALS
  NO   OCC          E(Eh)            E(eV)
   0   1.0000      -3.590437       -97.7008
   1   1.0000      -3.590432       -97.7006
   2   1.0000      -3.579410       -97.4007
   3   1.0000      -2.216425       -60.3120
   4   1.0000      -2.215523       -60.2875
   5   1.0000      -2.211564       -60.1797
   6   1.0000      -2.211564       -60.1797
   7   1.0000      -2.211557       -60.1795
   8   1.0000      -2.211557       -60.1795
   9   1.0000      -2.203990       -59.9736
  10   1.0000      -2.199403       -59.8488
  11   1.0000      -2.199403       -59.8488
  12   1.0000      -0.319746        -8.7007
  13   1.0000      -0.293385        -7.9834
  14   1.0000      -0.293385        -7.9834
  15   1.0000      -0.280130        -7.6227
  16   1.0000      -0.276557        -7.5255
  17   1.0000      -0.276557        -7.5255
  18   1.0000      -0.272420        -7.4129
  19   1.0000      -0.272416        -7.4128
  20   1.0000      -0.271205        -7.3799
  21   1.0000      -0.271202        -7.3798
  22   1.0000      -0.253608        -6.9010
  23   1.0000      -0.253604        -6.9009
  24   1.0000      -0.243966        -6.6386
  25   1.0000      -0.243966        -6.6386
  26   1.0000      -0.239488        -6.5168
  27   1.0000      -0.203672        -5.5422
  28   1.0000      -0.174875        -4.7586
  29   0.0000      -0.091744        -2.4965
  30   0.0000      -0.045902        -1.2491
  31   0.0000      -0.045902        -1.2490
  32   0.0000      -0.024213        -0.6589
  33   0.0000      -0.011542        -0.3141

                 SPIN DOWN ORBITALS
  NO   OCC          E(Eh)            E(eV)
   0   1.0000      -3.590604       -97.7053
   1   1.0000      -3.590598       -97.7051
   2   1.0000      -3.579512       -97.4035
   3   1.0000      -2.215888       -60.2974
   4   1.0000      -2.214963       -60.2722
   5   1.0000      -2.211728       -60.1842
   6   1.0000      -2.211728       -60.1842
   7   1.0000      -2.211721       -60.1840
   8   1.0000      -2.211721       -60.1840
   9   1.0000      -2.203909       -59.9714
  10   1.0000      -2.199649       -59.8555
  11   1.0000      -2.199649       -59.8555
  12   1.0000      -0.316178        -8.6037
  13   1.0000      -0.290057        -7.8928
  14   1.0000      -0.290057        -7.8928
  15   1.0000      -0.276371        -7.5204
  16   1.0000      -0.272351        -7.4111
  17   1.0000      -0.272351        -7.4111
  18   1.0000      -0.268034        -7.2936
  19   1.0000      -0.268030        -7.2935
  20   1.0000      -0.266489        -7.2515
  21   1.0000      -0.266485        -7.2514
  22   1.0000      -0.253681        -6.9030
  23   1.0000      -0.253677        -6.9029
  24   1.0000      -0.242659        -6.6031
  25   1.0000      -0.242659        -6.6031
  26   1.0000      -0.236071        -6.4238
  27   1.0000      -0.194144        -5.2829
  28   0.0000      -0.156809        -4.2670
  29   0.0000      -0.080640        -2.1943
  30   0.0000      -0.036551        -0.9946
  31   0.0000      -0.036551        -0.9946
  32   0.0000      -0.011949        -0.3251

MULLIKEN ATOMIC CHARGES AND SPIN POPULATIONS
--------------------------------------------
   0 Ag:   -0.035988   -0.082733
   1 Ag:    0.017994    0.541366
   2 Ag:    0.017994    0.541368
Sum of atomic charges         :   -0.0000000

LOEWDIN ATOMIC CHARGES AND SPIN POPULATIONS
-------------------------------------------
   0 Ag:   -0.174990    0.292773
   1 Ag:    0.087492    0.353612
   2 Ag:    0.087497    0.353615

  Mayer bond orders larger than 0.100000
B(  0-Ag,  1-Ag) :   0.5884 B(  0-Ag,  2-Ag) :   0.5884 B(  1-Ag,  2-Ag) :   0.2285

Dispersion correction           -0.004429552
FINAL SINGLE POINT ENERGY      -440.835316128648

DIPOLE MOMENT
-------------
                                X             Y             Z
Electronic contribution:      0.00000      -0.00000      -0.00003
Nuclear contribution   :      0.00000       0.00000      -0.00000
                        -----------------------------------------
Total Dipole Moment    :      0.00000      -0.00000      -0.00003
                        -----------------------------------------
Magnitude (a.u.)       :      0.00003
Magnitude (Debye)      :      0.00009

VIBRATIONAL FREQUENCIES
-----------------------

Scaling factor for frequencies =  1.000000000 (already applied!)

   0:         0.00 cm**-1
   1:         0.00 cm**-1
   2:         0.00 cm**-1
   3:         0.00 cm**-1
   4:         0.00 cm**-1
   5:       -13.28 cm**-1 ***imaginary mode***
   6:       -13.25 cm**-1 ***imaginary mode***
   7:       113.42 cm**-1
   8:       184.92 cm**-1

IR SPECTRUM
-----------

 Mode    freq (cm**-1)   T**2         TX         TY         TZ
-------------------------------------------------------------------
   7:       113.42    0.000000  (  0.000041   0.000013   0.000042)
   8:       184.92    0.001515  ( -0.000004  -0.000011  -0.038929)

--------------------------
THERMOCHEMISTRY AT 298.15K
--------------------------

Temperature         ... 298.15 K
Pressure            ... 1.00 atm
Total Mass          ... 323.61 AMU
The molecule is recognized as being linear

Throughout the following assumptions are being made:
  (1) The electronic state is orbitally nondegenerate
      but the spin degeneracy is treated
  (2) There are no thermally accessible electronically excited states
  (3) Hindered rotations indicated by low frequency modes are not
      treated as such but are treated as vibrations and this may
      cause some error
  (4) All equations used are the standard statistical mechanics
      equations for an ideal gas
  (5) All vibrations are strictly harmonic

freq.     113.42  E(vib)   ...       0.45
freq.     184.92  E(vib)   ...       0.37

------------
INNER ENERGY
------------

The inner energy is: U= E(el) + E(ZPE) + E(vib) + E(rot) + E(trans)
    E(el)   - is the total energy from the electronic structure calculation
              = E(kin-el) + E(nuc-el) + E(el-el) + E(nuc-nuc)
    E(ZPE)  - the the zero temperature vibrational energy from the frequency calculation
    E(vib)  - the the finite temperature correction to E(ZPE) due to population
              of excited vibrational states
    E(rot)  - is the rotational thermal energy
    E(trans)- is the translational thermal energy

Summary of contributions to the inner energy U:
Electronic energy                ...   -440.83531612 Eh
Zero point energy                ...      0.00067967 Eh       0.43 kcal/mol
Thermal vibrational correction   ...      0.00129404 Eh       0.81 kcal/mol
Thermal rotational correction    ...      0.00094418 Eh       0.59 kcal/mol
Thermal translational correction ...      0.00141627 Eh       0.89 kcal/mol
-----------------------------------------------------------------------
Total thermal energy                   -440.83098196 Eh

Summary of corrections to the electronic energy:
(perhaps to be used in another calculation)
Total thermal correction                  0.00365449 Eh       2.29 kcal/mol
Non-thermal (ZPE) correction              0.00067967 Eh       0.43 kcal/mol
-----------------------------------------------------------------------
Total correction                          0.00433416 Eh       2.72 kcal/mol

--------
ENTHALPY
--------

The enthalpy is H = U + kB*T
                kB is Boltzmann's constant
Total free energy                 ...   -440.83098196 Eh
Thermal Enthalpy correction       ...      0.00094421 Eh       0.59 kcal/mol
-----------------------------------------------------------------------
Total Enthalpy                    ...   -440.83003775 Eh

Note: Rotational entropy computed according to Herzberg
Infrared and Raman Spectra, Chapter V,1, Van Nostrand Reinhold, 1945
Point Group:  Dinfh, Symmetry Number:   2
Rotational constants in cm-1:     0.000000     0.011431     0.011431

Vibrational entropy computed according to the QRRHO of S. Grimme
Chem.Eur.J. 2012 18 9955

-------
ENTROPY
-------

The entropy contributions are T*S = T*(S(el)+S(vib)+S(rot)+S(trans))
     S(el)   - electronic entropy
     S(vib)  - vibrational entropy
     S(rot)  - rotational entropy
     S(trans)- translational entropy
The entropies will be listed as mutliplied by the temperature to get
units of energy

Electronic entropy                ...      0.00065446 Eh      0.41 kcal/mol
Vibrational entropy               ...      0.00252033 Eh      1.58 kcal/mol
Rotational entropy                ...      0.00954768 Eh      5.99 kcal/mol
Translational entropy             ...      0.02053447 Eh     12.89 kcal/mol
-----------------------------------------------------------------------
Final entropy term                ...      0.03325693 Eh     20.87 kcal/mol

In case the symmetry of your molecule has not been determined correctly
or in case you have a reason to use a different symmetry number we print
out the resulting rotational entropy values for sn=1,12 :
 --------------------------------------------------------
|  sn= 1 | S(rot)=      -0.00182190 Eh     -1.14 kcal/mol|
|  sn= 2 | S(rot)=      -0.00247636 Eh     -1.55 kcal/mol|
|  sn= 3 | S(rot)=      -0.00285919 Eh     -1.79 kcal/mol|
|  sn= 4 | S(rot)=      -0.00313081 Eh     -1.96 kcal/mol|
|  sn= 5 | S(rot)=      -0.00334150 Eh     -2.10 kcal/mol|
|  sn= 6 | S(rot)=      -0.00351365 Eh     -2.20 kcal/mol|
|  sn= 7 | S(rot)=      -0.00365919 Eh     -2.30 kcal/mol|
|  sn= 8 | S(rot)=      -0.00378527 Eh     -2.38 kcal/mol|
|  sn= 9 | S(rot)=      -0.00389648 Eh     -2.45 kcal/mol|
|  sn=10 | S(rot)=      -0.00399596 Eh     -2.51 kcal/mol|
|  sn=11 | S(rot)=      -0.00408595 Eh     -2.56 kcal/mol|
|  sn=12 | S(rot)=      -0.00416810 Eh     -2.62 kcal/mol|
 --------------------------------------------------------

-------------------
GIBBS FREE ENERGY
-------------------

The Gibbs free energy is G = H - T*S

Total enthalpy                    ...   -440.83003775 Eh
Total entropy correction          ...     -0.03325693 Eh    -20.87 kcal/mol
-----------------------------------------------------------------------
Final Gibbs free energy         ...   -440.86329468 Eh

For completeness - the Gibbs free energy minus the electronic energy
G-E(el)                           ...     -0.02797856 Eh    -17.56 kcal/mol

                             ****ORCA TERMINATED NORMALLY****
TOTAL RUN TIME: 0 days 0 hours 0 minutes 46 seconds 795 msec
