                         Program Version 4.2.0 -  RELEASE  -
|  1> #
|  2> # Ag03C1_LIN TPSS-D3BJ/Def2-TZVPPD
|  3> #
|  4> ! tpss d3bj def2-tzvppd def2/j grid4 nofinalgrid opt xyzfile numfreq
|  5>
|  6> *xyz 1 1
|  7> Ag       0.000000    0.000000    0.000000
|  8> Ag       0.000000    0.000000    2.629319
|  9> Ag       0.000000    0.000000   -2.629319
| 10> *
| 11>
| 12> %maxcore 5000
| 13>
| 14> %pal
| 15> nprocs = 24
| 16> end
| 17>
| 18>
| 19>                          ****END OF INPUT****
 Total Charge           Charge          ....    1
 Multiplicity           Mult            ....    1
 Number of Electrons    NEL             ....   56
Dispersion correction           -0.004412018
FINAL SINGLE POINT ENERGY      -440.578756728942
Dispersion correction            ... done
Dispersion correction           -0.004410153
FINAL SINGLE POINT ENERGY      -440.578769031365
Dispersion correction            ... done
Dispersion correction           -0.004385238
FINAL SINGLE POINT ENERGY      -440.578859886133
Dispersion correction            ... done
                    ***********************HURRAY********************

CARTESIAN COORDINATES (ANGSTROEM)
---------------------------------
  Ag     0.000000    0.000000    0.000000
  Ag    -0.000000   -0.000000    2.653813
  Ag    -0.000000   -0.000000   -2.653814

 Multiplicity           Mult            ....    1
 Number of Electrons    NEL             ....   56
 Basis Dimension        Dim             ....  168

ORBITAL ENERGIES
----------------

  NO   OCC          E(Eh)            E(eV)
   0   2.0000      -3.786312      -103.0308
   1   2.0000      -3.786311      -103.0308
   2   2.0000      -3.756066      -102.2078
   3   2.0000      -2.411651       -65.6244
   4   2.0000      -2.411389       -65.6172
   5   2.0000      -2.408471       -65.5378
   6   2.0000      -2.408471       -65.5378
   7   2.0000      -2.408470       -65.5378
   8   2.0000      -2.408470       -65.5378
   9   2.0000      -2.382945       -64.8432
  10   2.0000      -2.375669       -64.6452
  11   2.0000      -2.375669       -64.6452
  12   2.0000      -0.505060       -13.7434
  13   2.0000      -0.480252       -13.0683
  14   2.0000      -0.480252       -13.0683
  15   2.0000      -0.473613       -12.8877
  16   2.0000      -0.469805       -12.7841
  17   2.0000      -0.469805       -12.7841
  18   2.0000      -0.465499       -12.6669
  19   2.0000      -0.465496       -12.6668
  20   2.0000      -0.465070       -12.6552
  21   2.0000      -0.465067       -12.6551
  22   2.0000      -0.429963       -11.6999
  23   2.0000      -0.429961       -11.6998
  24   2.0000      -0.428944       -11.6722
  25   2.0000      -0.428944       -11.6722
  26   2.0000      -0.425812       -11.5869
  27   2.0000      -0.370632       -10.0854
  28   0.0000      -0.339465        -9.2373
  29   0.0000      -0.249513        -6.7896
  30   0.0000      -0.193625        -5.2688
  31   0.0000      -0.193625        -5.2688
  32   0.0000      -0.174223        -4.7408

MULLIKEN ATOMIC CHARGES
-----------------------
   0 Ag:   -0.050377
   1 Ag:    0.525196
   2 Ag:    0.525182
Sum of atomic charges:    1.0000000

LOEWDIN ATOMIC CHARGES
----------------------
   0 Ag:    0.143460
   1 Ag:    0.428276
   2 Ag:    0.428264

  Mayer bond orders larger than 0.100000
B(  0-Ag,  1-Ag) :   0.5991 B(  0-Ag,  2-Ag) :   0.5992 B(  1-Ag,  2-Ag) :   0.2923

Dispersion correction           -0.004384031
FINAL SINGLE POINT ENERGY      -440.578860734073

DIPOLE MOMENT
-------------
                                X             Y             Z
Electronic contribution:     -0.00000      -0.00000       0.00008
Nuclear contribution   :      0.00000       0.00000       0.00000
                        -----------------------------------------
Total Dipole Moment    :     -0.00000      -0.00000       0.00008
                        -----------------------------------------
Magnitude (a.u.)       :      0.00008
Magnitude (Debye)      :      0.00019

VIBRATIONAL FREQUENCIES
-----------------------

Scaling factor for frequencies =  1.000000000 (already applied!)

   0:         0.00 cm**-1
   1:         0.00 cm**-1
   2:         0.00 cm**-1
   3:         0.00 cm**-1
   4:         0.00 cm**-1
   5:         0.00 cm**-1
   6:       -41.93 cm**-1 ***imaginary mode***
   7:       100.33 cm**-1
   8:       169.53 cm**-1

IR SPECTRUM
-----------

 Mode    freq (cm**-1)   T**2         TX         TY         TZ
-------------------------------------------------------------------
   7:       100.33    0.013504  ( -0.000009  -0.000028   0.116207)
   8:       169.53   14.767547  ( -0.000005   0.000013  -3.842857)

--------------------------
THERMOCHEMISTRY AT 298.15K
--------------------------

Temperature         ... 298.15 K
Pressure            ... 1.00 atm
Total Mass          ... 323.61 AMU
The molecule is recognized as being linear

Throughout the following assumptions are being made:
  (1) The electronic state is orbitally nondegenerate
  (2) There are no thermally accessible electronically excited states
  (3) Hindered rotations indicated by low frequency modes are not
      treated as such but are treated as vibrations and this may
      cause some error
  (4) All equations used are the standard statistical mechanics
      equations for an ideal gas
  (5) All vibrations are strictly harmonic

freq.     100.33  E(vib)   ...       0.46
freq.     169.53  E(vib)   ...       0.38

------------
INNER ENERGY
------------

The inner energy is: U= E(el) + E(ZPE) + E(vib) + E(rot) + E(trans)
    E(el)   - is the total energy from the electronic structure calculation
              = E(kin-el) + E(nuc-el) + E(el-el) + E(nuc-nuc)
    E(ZPE)  - the the zero temperature vibrational energy from the frequency calculation
    E(vib)  - the the finite temperature correction to E(ZPE) due to population
              of excited vibrational states
    E(rot)  - is the rotational thermal energy
    E(trans)- is the translational thermal energy

Summary of contributions to the inner energy U:
Electronic energy                ...   -440.57886073 Eh
Zero point energy                ...      0.00061479 Eh       0.39 kcal/mol
Thermal vibrational correction   ...      0.00134409 Eh       0.84 kcal/mol
Thermal rotational correction    ...      0.00094418 Eh       0.59 kcal/mol
Thermal translational correction ...      0.00141627 Eh       0.89 kcal/mol
-----------------------------------------------------------------------
Total thermal energy                   -440.57454141 Eh

Summary of corrections to the electronic energy:
(perhaps to be used in another calculation)
Total thermal correction                  0.00370454 Eh       2.32 kcal/mol
Non-thermal (ZPE) correction              0.00061479 Eh       0.39 kcal/mol
-----------------------------------------------------------------------
Total correction                          0.00431932 Eh       2.71 kcal/mol

--------
ENTHALPY
--------

The enthalpy is H = U + kB*T
                kB is Boltzmann's constant
Total free energy                 ...   -440.57454141 Eh
Thermal Enthalpy correction       ...      0.00094421 Eh       0.59 kcal/mol
-----------------------------------------------------------------------
Total Enthalpy                    ...   -440.57359720 Eh

Note: Rotational entropy computed according to Herzberg
Infrared and Raman Spectra, Chapter V,1, Van Nostrand Reinhold, 1945
Point Group:  Dinfh, Symmetry Number:   2
Rotational constants in cm-1:     0.000000     0.011095     0.011095

Vibrational entropy computed according to the QRRHO of S. Grimme
Chem.Eur.J. 2012 18 9955

-------
ENTROPY
-------

The entropy contributions are T*S = T*(S(el)+S(vib)+S(rot)+S(trans))
     S(el)   - electronic entropy
     S(vib)  - vibrational entropy
     S(rot)  - rotational entropy
     S(trans)- translational entropy
The entropies will be listed as mutliplied by the temperature to get
units of energy

Electronic entropy                ...      0.00000000 Eh      0.00 kcal/mol
Vibrational entropy               ...      0.00265159 Eh      1.66 kcal/mol
Rotational entropy                ...      0.00957582 Eh      6.01 kcal/mol
Translational entropy             ...      0.02053447 Eh     12.89 kcal/mol
-----------------------------------------------------------------------
Final entropy term                ...      0.03276187 Eh     20.56 kcal/mol

In case the symmetry of your molecule has not been determined correctly
or in case you have a reason to use a different symmetry number we print
out the resulting rotational entropy values for sn=1,12 :
 --------------------------------------------------------
|  sn= 1 | S(rot)=      -0.00004978 Eh     -0.03 kcal/mol|
|  sn= 2 | S(rot)=      -0.00070424 Eh     -0.44 kcal/mol|
|  sn= 3 | S(rot)=      -0.00108707 Eh     -0.68 kcal/mol|
|  sn= 4 | S(rot)=      -0.00135869 Eh     -0.85 kcal/mol|
|  sn= 5 | S(rot)=      -0.00156938 Eh     -0.98 kcal/mol|
|  sn= 6 | S(rot)=      -0.00174152 Eh     -1.09 kcal/mol|
|  sn= 7 | S(rot)=      -0.00188707 Eh     -1.18 kcal/mol|
|  sn= 8 | S(rot)=      -0.00201315 Eh     -1.26 kcal/mol|
|  sn= 9 | S(rot)=      -0.00212436 Eh     -1.33 kcal/mol|
|  sn=10 | S(rot)=      -0.00222384 Eh     -1.40 kcal/mol|
|  sn=11 | S(rot)=      -0.00231383 Eh     -1.45 kcal/mol|
|  sn=12 | S(rot)=      -0.00239598 Eh     -1.50 kcal/mol|
 --------------------------------------------------------

-------------------
GIBBS FREE ENERGY
-------------------

The Gibbs free energy is G = H - T*S

Total enthalpy                    ...   -440.57359720 Eh
Total entropy correction          ...     -0.03276187 Eh    -20.56 kcal/mol
-----------------------------------------------------------------------
Final Gibbs free energy         ...   -440.60635907 Eh

For completeness - the Gibbs free energy minus the electronic energy
G-E(el)                           ...     -0.02749834 Eh    -17.26 kcal/mol

                             ****ORCA TERMINATED NORMALLY****
TOTAL RUN TIME: 0 days 0 hours 0 minutes 41 seconds 539 msec
