                         Program Version 4.2.0 -  RELEASE  -
|  1> #
|  2> # Ag03C1_D3H TPSS-D3BJ/Def2-TZVPPD
|  3> #
|  4> ! tpss d3bj def2-tzvppd def2/j grid4 nofinalgrid opt xyzfile numfreq
|  5>
|  6> *xyz 1 1
|  7> Ag       0.000000    1.529877    0.000000
|  8> Ag       1.324912   -0.764938    0.000000
|  9> Ag      -1.324912   -0.764938    0.000000
| 10> *
| 11>
| 12> %maxcore 5000
| 13>
| 14> %pal
| 15> nprocs = 24
| 16> end
| 17>
| 18>
| 19>                          ****END OF INPUT****
 Total Charge           Charge          ....    1
 Multiplicity           Mult            ....    1
 Number of Electrons    NEL             ....   56
Dispersion correction           -0.005737657
FINAL SINGLE POINT ENERGY      -440.629781022654
Dispersion correction            ... done
Dispersion correction           -0.005737265
FINAL SINGLE POINT ENERGY      -440.629795910371
Dispersion correction            ... done
Dispersion correction           -0.005732513
FINAL SINGLE POINT ENERGY      -440.629892742885
Dispersion correction            ... done
                    ***********************HURRAY********************

CARTESIAN COORDINATES (ANGSTROEM)
---------------------------------
  Ag    -0.000000    1.541992    0.000000
  Ag     1.333867   -0.770995    0.000000
  Ag    -1.333867   -0.770995    0.000000

 Multiplicity           Mult            ....    1
 Number of Electrons    NEL             ....   56
 Basis Dimension        Dim             ....  168

ORBITAL ENERGIES
----------------

  NO   OCC          E(Eh)            E(eV)
   0   2.0000      -3.787837      -103.0723
   1   2.0000      -3.787397      -103.0603
   2   2.0000      -3.787391      -103.0602
   3   2.0000      -2.414907       -65.7130
   4   2.0000      -2.412150       -65.6379
   5   2.0000      -2.412132       -65.6374
   6   2.0000      -2.409649       -65.5699
   7   2.0000      -2.409641       -65.5697
   8   2.0000      -2.409376       -65.5625
   9   2.0000      -2.407709       -65.5171
  10   2.0000      -2.407216       -65.5037
  11   2.0000      -2.407216       -65.5037
  12   2.0000      -0.517201       -14.0737
  13   2.0000      -0.498411       -13.5625
  14   2.0000      -0.498269       -13.5586
  15   2.0000      -0.492348       -13.3975
  16   2.0000      -0.478928       -13.0323
  17   2.0000      -0.474968       -12.9245
  18   2.0000      -0.474905       -12.9228
  19   2.0000      -0.457720       -12.4552
  20   2.0000      -0.457654       -12.4534
  21   2.0000      -0.453615       -12.3435
  22   2.0000      -0.451523       -12.2866
  23   2.0000      -0.451509       -12.2862
  24   2.0000      -0.451030       -12.2732
  25   2.0000      -0.450970       -12.2715
  26   2.0000      -0.436767       -11.8850
  27   2.0000      -0.407024       -11.0757
  28   0.0000      -0.289702        -7.8832
  29   0.0000      -0.289596        -7.8803
  30   0.0000      -0.211876        -5.7654
  31   0.0000      -0.183273        -4.9871
  32   0.0000      -0.170268        -4.6332

MULLIKEN ATOMIC CHARGES
-----------------------
   0 Ag:    0.333511
   1 Ag:    0.333244
   2 Ag:    0.333245
Sum of atomic charges:    1.0000000

LOEWDIN ATOMIC CHARGES
----------------------
   0 Ag:    0.333560
   1 Ag:    0.333220
   2 Ag:    0.333220

  Mayer bond orders larger than 0.100000
B(  0-Ag,  1-Ag) :   0.5740 B(  0-Ag,  2-Ag) :   0.5740 B(  1-Ag,  2-Ag) :   0.5748

Dispersion correction           -0.005732293
FINAL SINGLE POINT ENERGY      -440.629893739808

DIPOLE MOMENT
-------------
                                X             Y             Z
Electronic contribution:      0.00000       0.00105      -0.00000
Nuclear contribution   :     -0.00000      -0.00000       0.00000
                        -----------------------------------------
Total Dipole Moment    :      0.00000       0.00105      -0.00000
                        -----------------------------------------
Magnitude (a.u.)       :      0.00105
Magnitude (Debye)      :      0.00266

VIBRATIONAL FREQUENCIES
-----------------------

Scaling factor for frequencies =  1.000000000 (already applied!)

   0:         0.00 cm**-1
   1:         0.00 cm**-1
   2:         0.00 cm**-1
   3:         0.00 cm**-1
   4:         0.00 cm**-1
   5:         0.00 cm**-1
   6:       122.84 cm**-1
   7:       124.72 cm**-1
   8:       181.00 cm**-1

IR SPECTRUM
-----------

 Mode    freq (cm**-1)   T**2         TX         TY         TZ
-------------------------------------------------------------------
   6:       122.84    0.811818  ( -0.901010  -0.000163  -0.000002)
   7:       124.72    1.140518  ( -0.000155   1.067951   0.000007)
   8:       181.00    0.000037  ( -0.000041  -0.006065  -0.000001)

--------------------------
THERMOCHEMISTRY AT 298.15K
--------------------------

Temperature         ... 298.15 K
Pressure            ... 1.00 atm
Total Mass          ... 323.61 AMU

Throughout the following assumptions are being made:
  (1) The electronic state is orbitally nondegenerate
  (2) There are no thermally accessible electronically excited states
  (3) Hindered rotations indicated by low frequency modes are not
      treated as such but are treated as vibrations and this may
      cause some error
  (4) All equations used are the standard statistical mechanics
      equations for an ideal gas
  (5) All vibrations are strictly harmonic

freq.     122.84  E(vib)   ...       0.43
freq.     124.72  E(vib)   ...       0.43
freq.     181.00  E(vib)   ...       0.37

------------
INNER ENERGY
------------

The inner energy is: U= E(el) + E(ZPE) + E(vib) + E(rot) + E(trans)
    E(el)   - is the total energy from the electronic structure calculation
              = E(kin-el) + E(nuc-el) + E(el-el) + E(nuc-nuc)
    E(ZPE)  - the the zero temperature vibrational energy from the frequency calculation
    E(vib)  - the the finite temperature correction to E(ZPE) due to population
              of excited vibrational states
    E(rot)  - is the rotational thermal energy
    E(trans)- is the translational thermal energy

Summary of contributions to the inner energy U:
Electronic energy                ...   -440.62989373 Eh
Zero point energy                ...      0.00097632 Eh       0.61 kcal/mol
Thermal vibrational correction   ...      0.00197140 Eh       1.24 kcal/mol
Thermal rotational correction    ...      0.00141627 Eh       0.89 kcal/mol
Thermal translational correction ...      0.00141627 Eh       0.89 kcal/mol
-----------------------------------------------------------------------
Total thermal energy                   -440.62411347 Eh

Summary of corrections to the electronic energy:
(perhaps to be used in another calculation)
Total thermal correction                  0.00480394 Eh       3.01 kcal/mol
Non-thermal (ZPE) correction              0.00097632 Eh       0.61 kcal/mol
-----------------------------------------------------------------------
Total correction                          0.00578026 Eh       3.63 kcal/mol

--------
ENTHALPY
--------

The enthalpy is H = U + kB*T
                kB is Boltzmann's constant
Total free energy                 ...   -440.62411347 Eh
Thermal Enthalpy correction       ...      0.00094421 Eh       0.59 kcal/mol
-----------------------------------------------------------------------
Total Enthalpy                    ...   -440.62316926 Eh

Note: Rotational entropy computed according to Herzberg
Infrared and Raman Spectra, Chapter V,1, Van Nostrand Reinhold, 1945
Point Group:  C2v, Symmetry Number:   2
Rotational constants in cm-1:     0.043918     0.043817     0.021934

Vibrational entropy computed according to the QRRHO of S. Grimme
Chem.Eur.J. 2012 18 9955

-------
ENTROPY
-------

The entropy contributions are T*S = T*(S(el)+S(vib)+S(rot)+S(trans))
     S(el)   - electronic entropy
     S(vib)  - vibrational entropy
     S(rot)  - rotational entropy
     S(trans)- translational entropy
The entropies will be listed as mutliplied by the temperature to get
units of energy

Electronic entropy                ...      0.00000000 Eh      0.00 kcal/mol
Vibrational entropy               ...      0.00387582 Eh      2.43 kcal/mol
Rotational entropy                ...      0.01361168 Eh      8.54 kcal/mol
Translational entropy             ...      0.02053447 Eh     12.89 kcal/mol
-----------------------------------------------------------------------
Final entropy term                ...      0.03802196 Eh     23.86 kcal/mol

In case the symmetry of your molecule has not been determined correctly
or in case you have a reason to use a different symmetry number we print
out the resulting rotational entropy values for sn=1,12 :
 --------------------------------------------------------
|  sn= 1 | S(rot)=       0.01426613 Eh      8.95 kcal/mol|
|  sn= 2 | S(rot)=       0.01361168 Eh      8.54 kcal/mol|
|  sn= 3 | S(rot)=       0.01322884 Eh      8.30 kcal/mol|
|  sn= 4 | S(rot)=       0.01295722 Eh      8.13 kcal/mol|
|  sn= 5 | S(rot)=       0.01274653 Eh      8.00 kcal/mol|
|  sn= 6 | S(rot)=       0.01257439 Eh      7.89 kcal/mol|
|  sn= 7 | S(rot)=       0.01242884 Eh      7.80 kcal/mol|
|  sn= 8 | S(rot)=       0.01230276 Eh      7.72 kcal/mol|
|  sn= 9 | S(rot)=       0.01219156 Eh      7.65 kcal/mol|
|  sn=10 | S(rot)=       0.01209208 Eh      7.59 kcal/mol|
|  sn=11 | S(rot)=       0.01200209 Eh      7.53 kcal/mol|
|  sn=12 | S(rot)=       0.01191993 Eh      7.48 kcal/mol|
 --------------------------------------------------------

-------------------
GIBBS FREE ENERGY
-------------------

The Gibbs free energy is G = H - T*S

Total enthalpy                    ...   -440.62316926 Eh
Total entropy correction          ...     -0.03802196 Eh    -23.86 kcal/mol
-----------------------------------------------------------------------
Final Gibbs free energy         ...   -440.66119123 Eh

For completeness - the Gibbs free energy minus the electronic energy
G-E(el)                           ...     -0.03129749 Eh    -19.64 kcal/mol

                             ****ORCA TERMINATED NORMALLY****
TOTAL RUN TIME: 0 days 0 hours 0 minutes 45 seconds 517 msec
