                         Program Version 4.2.0 -  RELEASE  -
|  1> #
|  2> # Ag03N0_D3H TPSS-D3BJ/Def2-TZVPPD
|  3> #
|  4> ! tpss d3bj def2-tzvppd def2/j grid4 nofinalgrid opt xyzfile numfreq slowconv
|  5>
|  6> *xyz 0 2
|  7> Ag       0.000000    1.533951   -0.000000
|  8> Ag       1.328441   -0.766976    0.000000
|  9> Ag      -1.328441   -0.766976   -0.000000
| 10> *
| 11>
| 12> %maxcore 5000
| 13>
| 14> %pal
| 15> nprocs = 24
| 16> end
| 17>
| 18>
| 19>                          ****END OF INPUT****
 Total Charge           Charge          ....    0
 Multiplicity           Mult            ....    2
 Number of Electrons    NEL             ....   57
Dispersion correction           -0.005735736
FINAL SINGLE POINT ENERGY      -440.837294949670
Dispersion correction            ... done
Dispersion correction           -0.005735220
FINAL SINGLE POINT ENERGY      -440.837533011253
Dispersion correction            ... done
Dispersion correction           -0.005726794
FINAL SINGLE POINT ENERGY      -440.839178322423
Dispersion correction            ... done
FINAL SINGLE POINT ENERGY      -440.839200098098
FINAL SINGLE POINT ENERGY      -440.839207911769
FINAL SINGLE POINT ENERGY      -440.839233726671
Dispersion correction            ... done
Dispersion correction           -0.005721821
FINAL SINGLE POINT ENERGY      -440.839241120396
Dispersion correction            ... done
Dispersion correction           -0.005721769
FINAL SINGLE POINT ENERGY      -440.839242124066
Dispersion correction            ... done
                    ***********************HURRAY********************

CARTESIAN COORDINATES (ANGSTROEM)
---------------------------------
  Ag    -0.000001    1.625639    0.000000
  Ag     1.288499   -0.812821    0.000000
  Ag    -1.288498   -0.812819    0.000000

 Multiplicity           Mult            ....    2
 Number of Electrons    NEL             ....   57
 Basis Dimension        Dim             ....  168

ORBITAL ENERGIES
----------------
                 SPIN UP ORBITALS
  NO   OCC          E(Eh)            E(eV)
   0   1.0000      -3.600479       -97.9740
   1   1.0000      -3.600003       -97.9611
   2   1.0000      -3.579861       -97.4130
   3   1.0000      -2.227752       -60.6202
   4   1.0000      -2.222589       -60.4797
   5   1.0000      -2.221920       -60.4615
   6   1.0000      -2.221221       -60.4425
   7   1.0000      -2.220819       -60.4316
   8   1.0000      -2.220322       -60.4180
   9   1.0000      -2.203089       -59.9491
  10   1.0000      -2.202290       -59.9274
  11   1.0000      -2.199413       -59.8491
  12   1.0000      -0.325142        -8.8476
  13   1.0000      -0.313750        -8.5376
  14   1.0000      -0.303379        -8.2554
  15   1.0000      -0.295095        -8.0299
  16   1.0000      -0.288249        -7.8436
  17   1.0000      -0.287206        -7.8153
  18   1.0000      -0.278893        -7.5891
  19   1.0000      -0.267444        -7.2775
  20   1.0000      -0.264200        -7.1893
  21   1.0000      -0.263226        -7.1627
  22   1.0000      -0.257727        -7.0131
  23   1.0000      -0.255478        -6.9519
  24   1.0000      -0.254816        -6.9339
  25   1.0000      -0.253902        -6.9090
  26   1.0000      -0.244109        -6.6425
  27   1.0000      -0.226946        -6.1755
  28   1.0000      -0.130349        -3.5470
  29   0.0000      -0.124501        -3.3879
  30   0.0000      -0.054447        -1.4816
  31   0.0000      -0.036055        -0.9811
  32   0.0000      -0.020604        -0.5607
  33   0.0000      -0.018354        -0.4994

                 SPIN DOWN ORBITALS
  NO   OCC          E(Eh)            E(eV)
   0   1.0000      -3.600241       -97.9675
   1   1.0000      -3.599765       -97.9546
   2   1.0000      -3.579820       -97.4119
   3   1.0000      -2.227269       -60.6071
   4   1.0000      -2.222295       -60.4717
   5   1.0000      -2.221611       -60.4531
   6   1.0000      -2.220741       -60.4294
   7   1.0000      -2.220726       -60.4290
   8   1.0000      -2.220246       -60.4160
   9   1.0000      -2.203065       -59.9485
  10   1.0000      -2.201764       -59.9131
  11   1.0000      -2.199062       -59.8395
  12   1.0000      -0.323808        -8.8113
  13   1.0000      -0.311265        -8.4699
  14   1.0000      -0.302091        -8.2203
  15   1.0000      -0.291531        -7.9330
  16   1.0000      -0.285573        -7.7708
  17   1.0000      -0.285157        -7.7595
  18   1.0000      -0.276767        -7.5312
  19   1.0000      -0.266281        -7.2459
  20   1.0000      -0.263572        -7.1722
  21   1.0000      -0.261884        -7.1262
  22   1.0000      -0.253216        -6.8903
  23   1.0000      -0.251391        -6.8407
  24   1.0000      -0.250385        -6.8133
  25   1.0000      -0.249310        -6.7841
  26   1.0000      -0.240034        -6.5317
  27   1.0000      -0.218805        -5.9540
  28   0.0000      -0.118237        -3.2174
  29   0.0000      -0.107177        -2.9164
  30   0.0000      -0.047238        -1.2854
  31   0.0000      -0.024412        -0.6643
  32   0.0000      -0.008839        -0.2405

MULLIKEN ATOMIC CHARGES AND SPIN POPULATIONS
--------------------------------------------
   0 Ag:   -0.103967    0.593194
   1 Ag:    0.051982    0.203405
   2 Ag:    0.051985    0.203400
Sum of atomic charges         :    0.0000000

LOEWDIN ATOMIC CHARGES AND SPIN POPULATIONS
-------------------------------------------
   0 Ag:   -0.070750    0.497513
   1 Ag:    0.035374    0.251245
   2 Ag:    0.035376    0.251242

  Mayer bond orders larger than 0.100000
B(  0-Ag,  1-Ag) :   0.5584 B(  0-Ag,  2-Ag) :   0.5584 B(  1-Ag,  2-Ag) :   0.7834

Dispersion correction           -0.005721856
FINAL SINGLE POINT ENERGY      -440.839241926903

DIPOLE MOMENT
-------------
                                X             Y             Z
Electronic contribution:     -0.00001      -0.46746      -0.00000
Nuclear contribution   :     -0.00000       0.00000       0.00000
                        -----------------------------------------
Total Dipole Moment    :     -0.00001      -0.46746      -0.00000
                        -----------------------------------------
Magnitude (a.u.)       :      0.46746
Magnitude (Debye)      :      1.18818

VIBRATIONAL FREQUENCIES
-----------------------

Scaling factor for frequencies =  1.000000000 (already applied!)

   0:         0.00 cm**-1
   1:         0.00 cm**-1
   2:         0.00 cm**-1
   3:         0.00 cm**-1
   4:         0.00 cm**-1
   5:         0.00 cm**-1
   6:        65.17 cm**-1
   7:       123.51 cm**-1
   8:       186.81 cm**-1

IR SPECTRUM
-----------

 Mode    freq (cm**-1)   T**2         TX         TY         TZ
-------------------------------------------------------------------
   6:        65.17    0.236013  (  0.485812  -0.000018  -0.000003)
   7:       123.51    0.055624  (  0.000095  -0.235847  -0.000001)
   8:       186.81    0.238708  ( -0.000088  -0.488577   0.000012)

--------------------------
THERMOCHEMISTRY AT 298.15K
--------------------------

Temperature         ... 298.15 K
Pressure            ... 1.00 atm
Total Mass          ... 323.61 AMU

Throughout the following assumptions are being made:
  (1) The electronic state is orbitally nondegenerate
      but the spin degeneracy is treated
  (2) There are no thermally accessible electronically excited states
  (3) Hindered rotations indicated by low frequency modes are not
      treated as such but are treated as vibrations and this may
      cause some error
  (4) All equations used are the standard statistical mechanics
      equations for an ideal gas
  (5) All vibrations are strictly harmonic

freq.      65.17  E(vib)   ...       0.50
freq.     123.51  E(vib)   ...       0.43
freq.     186.81  E(vib)   ...       0.37

------------
INNER ENERGY
------------

The inner energy is: U= E(el) + E(ZPE) + E(vib) + E(rot) + E(trans)
    E(el)   - is the total energy from the electronic structure calculation
              = E(kin-el) + E(nuc-el) + E(el-el) + E(nuc-nuc)
    E(ZPE)  - the the zero temperature vibrational energy from the frequency calculation
    E(vib)  - the the finite temperature correction to E(ZPE) due to population
              of excited vibrational states
    E(rot)  - is the rotational thermal energy
    E(trans)- is the translational thermal energy

Summary of contributions to the inner energy U:
Electronic energy                ...   -440.83924193 Eh
Zero point energy                ...      0.00085544 Eh       0.54 kcal/mol
Thermal vibrational correction   ...      0.00207584 Eh       1.30 kcal/mol
Thermal rotational correction    ...      0.00141627 Eh       0.89 kcal/mol
Thermal translational correction ...      0.00141627 Eh       0.89 kcal/mol
-----------------------------------------------------------------------
Total thermal energy                   -440.83347811 Eh

Summary of corrections to the electronic energy:
(perhaps to be used in another calculation)
Total thermal correction                  0.00490838 Eh       3.08 kcal/mol
Non-thermal (ZPE) correction              0.00085544 Eh       0.54 kcal/mol
-----------------------------------------------------------------------
Total correction                          0.00576382 Eh       3.62 kcal/mol

--------
ENTHALPY
--------

The enthalpy is H = U + kB*T
                kB is Boltzmann's constant
Total free energy                 ...   -440.83347811 Eh
Thermal Enthalpy correction       ...      0.00094421 Eh       0.59 kcal/mol
-----------------------------------------------------------------------
Total Enthalpy                    ...   -440.83253390 Eh

Note: Rotational entropy computed according to Herzberg
Infrared and Raman Spectra, Chapter V,1, Van Nostrand Reinhold, 1945
Point Group:  Cs, Symmetry Number:   1
Rotational constants in cm-1:     0.047065     0.039424     0.021453

Vibrational entropy computed according to the QRRHO of S. Grimme
Chem.Eur.J. 2012 18 9955

-------
ENTROPY
-------

The entropy contributions are T*S = T*(S(el)+S(vib)+S(rot)+S(trans))
     S(el)   - electronic entropy
     S(vib)  - vibrational entropy
     S(rot)  - rotational entropy
     S(trans)- translational entropy
The entropies will be listed as mutliplied by the temperature to get
units of energy

Electronic entropy                ...      0.00065446 Eh      0.41 kcal/mol
Vibrational entropy               ...      0.00409448 Eh      2.57 kcal/mol
Rotational entropy                ...      0.01429379 Eh      8.97 kcal/mol
Translational entropy             ...      0.02053447 Eh     12.89 kcal/mol
-----------------------------------------------------------------------
Final entropy term                ...      0.03957720 Eh     24.84 kcal/mol

In case the symmetry of your molecule has not been determined correctly
or in case you have a reason to use a different symmetry number we print
out the resulting rotational entropy values for sn=1,12 :
 --------------------------------------------------------
|  sn= 1 | S(rot)=       0.01429379 Eh      8.97 kcal/mol|
|  sn= 2 | S(rot)=       0.01363933 Eh      8.56 kcal/mol|
|  sn= 3 | S(rot)=       0.01325650 Eh      8.32 kcal/mol|
|  sn= 4 | S(rot)=       0.01298488 Eh      8.15 kcal/mol|
|  sn= 5 | S(rot)=       0.01277419 Eh      8.02 kcal/mol|
|  sn= 6 | S(rot)=       0.01260204 Eh      7.91 kcal/mol|
|  sn= 7 | S(rot)=       0.01245650 Eh      7.82 kcal/mol|
|  sn= 8 | S(rot)=       0.01233042 Eh      7.74 kcal/mol|
|  sn= 9 | S(rot)=       0.01221921 Eh      7.67 kcal/mol|
|  sn=10 | S(rot)=       0.01211973 Eh      7.61 kcal/mol|
|  sn=11 | S(rot)=       0.01202974 Eh      7.55 kcal/mol|
|  sn=12 | S(rot)=       0.01194759 Eh      7.50 kcal/mol|
 --------------------------------------------------------

-------------------
GIBBS FREE ENERGY
-------------------

The Gibbs free energy is G = H - T*S

Total enthalpy                    ...   -440.83253390 Eh
Total entropy correction          ...     -0.03957720 Eh    -24.84 kcal/mol
-----------------------------------------------------------------------
Final Gibbs free energy         ...   -440.87211109 Eh

For completeness - the Gibbs free energy minus the electronic energy
G-E(el)                           ...     -0.03286917 Eh    -20.63 kcal/mol

                             ****ORCA TERMINATED NORMALLY****
TOTAL RUN TIME: 0 days 0 hours 1 minutes 40 seconds 495 msec
