                         Program Version 4.2.0 -  RELEASE  -
|  1> #
|  2> # Au01N0_F TPSS-D3BJ/Def2-TZVPPD
|  3> #
|  4> ! tpss d3bj def2-tzvppd def2/j grid4 nofinalgrid opt xyzfile numfreq
|  5>
|  6> *xyz 0 1
|  7> Au       0.000000    0.000000    0.196853
|  8> F        0.000000    0.000000   -1.727931
|  9> *
| 10>
| 11> %maxcore 5000
| 12>
| 13> %pal
| 14> nprocs = 24
| 15> end
| 16>
| 17>
| 18>                          ****END OF INPUT****
 Total Charge           Charge          ....    0
 Multiplicity           Mult            ....    1
 Number of Electrons    NEL             ....   28
Dispersion correction           -0.000654839
FINAL SINGLE POINT ENERGY      -235.564407274306
Dispersion correction            ... done
Dispersion correction           -0.000654554
FINAL SINGLE POINT ENERGY      -235.564418046203
Dispersion correction            ... done
Dispersion correction           -0.000654683
FINAL SINGLE POINT ENERGY      -235.564477942776
Dispersion correction            ... done
Dispersion correction           -0.000654689
FINAL SINGLE POINT ENERGY      -235.564478065450
Dispersion correction            ... done
                    ***********************HURRAY********************

CARTESIAN COORDINATES (ANGSTROEM)
---------------------------------
  Au     0.000000    0.000000    0.204042
  F      0.000000    0.000000   -1.735120

 Multiplicity           Mult            ....    1
 Number of Electrons    NEL             ....   28
 Basis Dimension        Dim             ....   99

ORBITAL ENERGIES
----------------

  NO   OCC          E(Eh)            E(eV)
   0   2.0000     -24.369718      -663.1338
   1   2.0000      -4.055081      -110.3444
   2   2.0000      -2.278452       -61.9998
   3   2.0000      -2.256450       -61.4011
   4   2.0000      -2.256450       -61.4011
   5   2.0000      -1.033409       -28.1205
   6   2.0000      -0.406047       -11.0491
   7   2.0000      -0.349787        -9.5182
   8   2.0000      -0.349787        -9.5182
   9   2.0000      -0.286389        -7.7930
  10   2.0000      -0.286388        -7.7930
  11   2.0000      -0.263332        -7.1656
  12   2.0000      -0.263332        -7.1656
  13   2.0000      -0.260267        -7.0822
  14   0.0000      -0.178636        -4.8609
  15   0.0000      -0.018708        -0.5091
  16   0.0000      -0.018708        -0.5091
  17   0.0000       0.021369         0.5815
  18   0.0000       0.079415         2.1610

MULLIKEN ATOMIC CHARGES
-----------------------
   0 Au:    0.409581
   1 F :   -0.409581
Sum of atomic charges:   -0.0000000

LOEWDIN ATOMIC CHARGES
----------------------
   0 Au:    0.579817
   1 F :   -0.579817

  Mayer bond orders larger than 0.100000
B(  0-Au,  1-F ) :   0.8851

Dispersion correction           -0.000654689
FINAL SINGLE POINT ENERGY      -235.564478066911

DIPOLE MOMENT
-------------
                                X             Y             Z
Electronic contribution:     -0.00000      -0.00000      25.45382
Nuclear contribution   :      0.00000       0.00000     -23.95435
                        -----------------------------------------
Total Dipole Moment    :     -0.00000      -0.00000       1.49947
                        -----------------------------------------
Magnitude (a.u.)       :      1.49947
Magnitude (Debye)      :      3.81136

VIBRATIONAL FREQUENCIES
-----------------------

Scaling factor for frequencies =  1.000000000 (already applied!)

   0:         0.00 cm**-1
   1:         0.00 cm**-1
   2:         0.00 cm**-1
   3:         0.00 cm**-1
   4:         0.00 cm**-1
   5:       536.81 cm**-1

IR SPECTRUM
-----------

 Mode    freq (cm**-1)   T**2         TX         TY         TZ
-------------------------------------------------------------------
   5:       536.81   38.712125  ( -0.000001  -0.000000   6.221907)

--------------------------
THERMOCHEMISTRY AT 298.15K
--------------------------

Temperature         ... 298.15 K
Pressure            ... 1.00 atm
Total Mass          ... 215.96 AMU
The molecule is recognized as being linear

Throughout the following assumptions are being made:
  (1) The electronic state is orbitally nondegenerate
  (2) There are no thermally accessible electronically excited states
  (3) Hindered rotations indicated by low frequency modes are not
      treated as such but are treated as vibrations and this may
      cause some error
  (4) All equations used are the standard statistical mechanics
      equations for an ideal gas
  (5) All vibrations are strictly harmonic

freq.     536.81  E(vib)   ...       0.12

------------
INNER ENERGY
------------

The inner energy is: U= E(el) + E(ZPE) + E(vib) + E(rot) + E(trans)
    E(el)   - is the total energy from the electronic structure calculation
              = E(kin-el) + E(nuc-el) + E(el-el) + E(nuc-nuc)
    E(ZPE)  - the the zero temperature vibrational energy from the frequency calculation
    E(vib)  - the the finite temperature correction to E(ZPE) due to population
              of excited vibrational states
    E(rot)  - is the rotational thermal energy
    E(trans)- is the translational thermal energy

Summary of contributions to the inner energy U:
Electronic energy                ...   -235.56447807 Eh
Zero point energy                ...      0.00122295 Eh       0.77 kcal/mol
Thermal vibrational correction   ...      0.00019828 Eh       0.12 kcal/mol
Thermal rotational correction    ...      0.00094418 Eh       0.59 kcal/mol
Thermal translational correction ...      0.00141627 Eh       0.89 kcal/mol
-----------------------------------------------------------------------
Total thermal energy                   -235.56069638 Eh

Summary of corrections to the electronic energy:
(perhaps to be used in another calculation)
Total thermal correction                  0.00255873 Eh       1.61 kcal/mol
Non-thermal (ZPE) correction              0.00122295 Eh       0.77 kcal/mol
-----------------------------------------------------------------------
Total correction                          0.00378169 Eh       2.37 kcal/mol

--------
ENTHALPY
--------

The enthalpy is H = U + kB*T
                kB is Boltzmann's constant
Total free energy                 ...   -235.56069638 Eh
Thermal Enthalpy correction       ...      0.00094421 Eh       0.59 kcal/mol
-----------------------------------------------------------------------
Total Enthalpy                    ...   -235.55975217 Eh

Note: Rotational entropy computed according to Herzberg
Infrared and Raman Spectra, Chapter V,1, Van Nostrand Reinhold, 1945
Point Group:  Cinfv, Symmetry Number:   1
Rotational constants in cm-1:     0.000000     0.258732     0.258732

Vibrational entropy computed according to the QRRHO of S. Grimme
Chem.Eur.J. 2012 18 9955

-------
ENTROPY
-------

The entropy contributions are T*S = T*(S(el)+S(vib)+S(rot)+S(trans))
     S(el)   - electronic entropy
     S(vib)  - vibrational entropy
     S(rot)  - rotational entropy
     S(trans)- translational entropy
The entropies will be listed as mutliplied by the temperature to get
units of energy

Electronic entropy                ...      0.00000000 Eh      0.00 kcal/mol
Vibrational entropy               ...      0.00027222 Eh      0.17 kcal/mol
Rotational entropy                ...      0.00725676 Eh      4.55 kcal/mol
Translational entropy             ...      0.01996169 Eh     12.53 kcal/mol
-----------------------------------------------------------------------
Final entropy term                ...      0.02749068 Eh     17.25 kcal/mol

In case the symmetry of your molecule has not been determined correctly
or in case you have a reason to use a different symmetry number we print
out the resulting rotational entropy values for sn=1,12 :
 --------------------------------------------------------
|  sn= 1 | S(rot)=             -inf Eh      -inf kcal/mol|
|  sn= 2 | S(rot)=             -inf Eh      -inf kcal/mol|
|  sn= 3 | S(rot)=             -inf Eh      -inf kcal/mol|
|  sn= 4 | S(rot)=             -inf Eh      -inf kcal/mol|
|  sn= 5 | S(rot)=             -inf Eh      -inf kcal/mol|
|  sn= 6 | S(rot)=             -inf Eh      -inf kcal/mol|
|  sn= 7 | S(rot)=             -inf Eh      -inf kcal/mol|
|  sn= 8 | S(rot)=             -inf Eh      -inf kcal/mol|
|  sn= 9 | S(rot)=             -inf Eh      -inf kcal/mol|
|  sn=10 | S(rot)=             -inf Eh      -inf kcal/mol|
|  sn=11 | S(rot)=             -inf Eh      -inf kcal/mol|
|  sn=12 | S(rot)=             -inf Eh      -inf kcal/mol|
 --------------------------------------------------------

-------------------
GIBBS FREE ENERGY
-------------------

The Gibbs free energy is G = H - T*S

Total enthalpy                    ...   -235.55975217 Eh
Total entropy correction          ...     -0.02749068 Eh    -17.25 kcal/mol
-----------------------------------------------------------------------
Final Gibbs free energy         ...   -235.58724285 Eh

For completeness - the Gibbs free energy minus the electronic energy
G-E(el)                           ...     -0.02276478 Eh    -14.29 kcal/mol

                             ****ORCA TERMINATED NORMALLY****
TOTAL RUN TIME: 0 days 0 hours 0 minutes 29 seconds 469 msec
