                         Program Version 4.2.0 -  RELEASE  -
|  1> #
|  2> # Au03C1_LIN TPSS-D3BJ/Def2-TZVPPD
|  3> #
|  4> ! tpss d3bj def2-tzvppd def2/j grid4 nofinalgrid opt xyzfile numfreq
|  5>
|  6> *xyz 1 1
|  7> Au       0.000000    0.000000    0.000000
|  8> Au       0.000000    0.000000    2.576864
|  9> Au       0.000000    0.000000   -2.576864
| 10> *
| 11>
| 12> %maxcore 5000
| 13>
| 14> %pal
| 15> nprocs = 24
| 16> end
| 17>
| 18>
| 19>                          ****END OF INPUT****
 Total Charge           Charge          ....    1
 Multiplicity           Mult            ....    1
 Number of Electrons    NEL             ....   56
Dispersion correction           -0.004809892
FINAL SINGLE POINT ENERGY      -406.836214815321
Dispersion correction            ... done
Dispersion correction           -0.004678295
FINAL SINGLE POINT ENERGY      -406.834738666950
Dispersion correction            ... done
Dispersion correction           -0.004772975
FINAL SINGLE POINT ENERGY      -406.836255703110
Dispersion correction            ... done
Dispersion correction           -0.004784141
FINAL SINGLE POINT ENERGY      -406.836282308007
Dispersion correction            ... done
Dispersion correction           -0.004782140
FINAL SINGLE POINT ENERGY      -406.836280003756
Dispersion correction            ... done
                    ***********************HURRAY********************

CARTESIAN COORDINATES (ANGSTROEM)
---------------------------------
  Au    -0.000000    0.000000   -0.000015
  Au     0.000000   -0.000000    2.595963
  Au     0.000000   -0.000000   -2.595948

 Multiplicity           Mult            ....    1
 Number of Electrons    NEL             ....   56
 Basis Dimension        Dim             ....  177

ORBITAL ENERGIES
----------------

  NO   OCC          E(Eh)            E(eV)
   0   2.0000      -4.220723      -114.8517
   1   2.0000      -4.220722      -114.8517
   2   2.0000      -4.187010      -113.9343
   3   2.0000      -2.435673       -66.2780
   4   2.0000      -2.434841       -66.2554
   5   2.0000      -2.428595       -66.0854
   6   2.0000      -2.428595       -66.0854
   7   2.0000      -2.428589       -66.0853
   8   2.0000      -2.428589       -66.0853
   9   2.0000      -2.404991       -65.4431
  10   2.0000      -2.390016       -65.0356
  11   2.0000      -2.390016       -65.0356
  12   2.0000      -0.543307       -14.7841
  13   2.0000      -0.492166       -13.3925
  14   2.0000      -0.492166       -13.3925
  15   2.0000      -0.479449       -13.0465
  16   2.0000      -0.471865       -12.8401
  17   2.0000      -0.471865       -12.8401
  18   2.0000      -0.463953       -12.6248
  19   2.0000      -0.463940       -12.6245
  20   2.0000      -0.462967       -12.5980
  21   2.0000      -0.462955       -12.5976
  22   2.0000      -0.433308       -11.7909
  23   2.0000      -0.420503       -11.4425
  24   2.0000      -0.420485       -11.4420
  25   2.0000      -0.416287       -11.3278
  26   2.0000      -0.416287       -11.3278
  27   2.0000      -0.403967       -10.9925
  28   0.0000      -0.402835       -10.9617
  29   0.0000      -0.293979        -7.9996
  30   0.0000      -0.205661        -5.5963
  31   0.0000      -0.205661        -5.5963
  32   0.0000      -0.188676        -5.1341

MULLIKEN ATOMIC CHARGES
-----------------------
   0 Au:   -0.009256
   1 Au:    0.504631
   2 Au:    0.504625
Sum of atomic charges:    1.0000000

LOEWDIN ATOMIC CHARGES
----------------------
   0 Au:    0.127425
   1 Au:    0.436290
   2 Au:    0.436285

  Mayer bond orders larger than 0.100000
B(  0-Au,  1-Au) :   0.6592 B(  0-Au,  2-Au) :   0.6592 B(  1-Au,  2-Au) :   0.4920

Dispersion correction           -0.004782172
FINAL SINGLE POINT ENERGY      -406.836280097085

DIPOLE MOMENT
-------------
                                X             Y             Z
Electronic contribution:      0.00000       0.00000       0.00002
Nuclear contribution   :      0.00000       0.00000       0.00000
                        -----------------------------------------
Total Dipole Moment    :      0.00000       0.00000       0.00002
                        -----------------------------------------
Magnitude (a.u.)       :      0.00002
Magnitude (Debye)      :      0.00006

ORCA finished by error termination in SCF

VIBRATIONAL FREQUENCIES
-----------------------

Scaling factor for frequencies =  1.000000000 (already applied!)

   0:         0.00 cm**-1
   1:         0.00 cm**-1
   2:         0.00 cm**-1
   3:         0.00 cm**-1
   4:         0.00 cm**-1
   5:       -81.52 cm**-1 ***imaginary mode***
   6:       -81.51 cm**-1 ***imaginary mode***
   7:        92.38 cm**-1
   8:       102.31 cm**-1

IR SPECTRUM
-----------

 Mode    freq (cm**-1)   T**2         TX         TY         TZ
-------------------------------------------------------------------
   7:        92.38    3.184122  ( -0.000002  -0.000004   1.784411)
   8:       102.31    0.000176  ( -0.000008   0.000000   0.013265)

--------------------------
THERMOCHEMISTRY AT 298.15K
--------------------------

Temperature         ... 298.15 K
Pressure            ... 1.00 atm
Total Mass          ... 590.90 AMU
The molecule is recognized as being linear

Throughout the following assumptions are being made:
  (1) The electronic state is orbitally nondegenerate
  (2) There are no thermally accessible electronically excited states
  (3) Hindered rotations indicated by low frequency modes are not
      treated as such but are treated as vibrations and this may
      cause some error
  (4) All equations used are the standard statistical mechanics
      equations for an ideal gas
  (5) All vibrations are strictly harmonic

freq.      92.38  E(vib)   ...       0.47
freq.     102.31  E(vib)   ...       0.46

------------
INNER ENERGY
------------

The inner energy is: U= E(el) + E(ZPE) + E(vib) + E(rot) + E(trans)
    E(el)   - is the total energy from the electronic structure calculation
              = E(kin-el) + E(nuc-el) + E(el-el) + E(nuc-nuc)
    E(ZPE)  - the the zero temperature vibrational energy from the frequency calculation
    E(vib)  - the the finite temperature correction to E(ZPE) due to population
              of excited vibrational states
    E(rot)  - is the rotational thermal energy
    E(trans)- is the translational thermal energy

Summary of contributions to the inner energy U:
Electronic energy                ...   -406.83628010 Eh
Zero point energy                ...      0.00044353 Eh       0.28 kcal/mol
Thermal vibrational correction   ...      0.00147957 Eh       0.93 kcal/mol
Thermal rotational correction    ...      0.00094418 Eh       0.59 kcal/mol
Thermal translational correction ...      0.00141627 Eh       0.89 kcal/mol
-----------------------------------------------------------------------
Total thermal energy                   -406.83199654 Eh

Summary of corrections to the electronic energy:
(perhaps to be used in another calculation)
Total thermal correction                  0.00384002 Eh       2.41 kcal/mol
Non-thermal (ZPE) correction              0.00044353 Eh       0.28 kcal/mol
-----------------------------------------------------------------------
Total correction                          0.00428356 Eh       2.69 kcal/mol

--------
ENTHALPY
--------

The enthalpy is H = U + kB*T
                kB is Boltzmann's constant
Total free energy                 ...   -406.83199654 Eh
Thermal Enthalpy correction       ...      0.00094421 Eh       0.59 kcal/mol
-----------------------------------------------------------------------
Total Enthalpy                    ...   -406.83105233 Eh

Note: Rotational entropy computed according to Herzberg
Infrared and Raman Spectra, Chapter V,1, Van Nostrand Reinhold, 1945
Point Group:  Cinfv, Symmetry Number:   1
Rotational constants in cm-1:     0.000000     0.006350     0.006350

Vibrational entropy computed according to the QRRHO of S. Grimme
Chem.Eur.J. 2012 18 9955

-------
ENTROPY
-------

The entropy contributions are T*S = T*(S(el)+S(vib)+S(rot)+S(trans))
     S(el)   - electronic entropy
     S(vib)  - vibrational entropy
     S(rot)  - rotational entropy
     S(trans)- translational entropy
The entropies will be listed as mutliplied by the temperature to get
units of energy

Electronic entropy                ...      0.00000000 Eh      0.00 kcal/mol
Vibrational entropy               ...      0.00301843 Eh      1.89 kcal/mol
Rotational entropy                ...      0.01075714 Eh      6.75 kcal/mol
Translational entropy             ...      0.02138721 Eh     13.42 kcal/mol
-----------------------------------------------------------------------
Final entropy term                ...      0.03516278 Eh     22.06 kcal/mol

In case the symmetry of your molecule has not been determined correctly
or in case you have a reason to use a different symmetry number we print
out the resulting rotational entropy values for sn=1,12 :
 --------------------------------------------------------
|  sn= 1 | S(rot)=      -0.00100470 Eh     -0.63 kcal/mol|
|  sn= 2 | S(rot)=      -0.00165916 Eh     -1.04 kcal/mol|
|  sn= 3 | S(rot)=      -0.00204199 Eh     -1.28 kcal/mol|
|  sn= 4 | S(rot)=      -0.00231362 Eh     -1.45 kcal/mol|
|  sn= 5 | S(rot)=      -0.00252430 Eh     -1.58 kcal/mol|
|  sn= 6 | S(rot)=      -0.00269645 Eh     -1.69 kcal/mol|
|  sn= 7 | S(rot)=      -0.00284199 Eh     -1.78 kcal/mol|
|  sn= 8 | S(rot)=      -0.00296807 Eh     -1.86 kcal/mol|
|  sn= 9 | S(rot)=      -0.00307928 Eh     -1.93 kcal/mol|
|  sn=10 | S(rot)=      -0.00317876 Eh     -1.99 kcal/mol|
|  sn=11 | S(rot)=      -0.00326875 Eh     -2.05 kcal/mol|
|  sn=12 | S(rot)=      -0.00335090 Eh     -2.10 kcal/mol|
 --------------------------------------------------------

-------------------
GIBBS FREE ENERGY
-------------------

The Gibbs free energy is G = H - T*S

Total enthalpy                    ...   -406.83105233 Eh
Total entropy correction          ...     -0.03516278 Eh    -22.06 kcal/mol
-----------------------------------------------------------------------
Final Gibbs free energy         ...   -406.86621512 Eh

For completeness - the Gibbs free energy minus the electronic energy
G-E(el)                           ...     -0.02993502 Eh    -18.78 kcal/mol

                             ****ORCA TERMINATED NORMALLY****
TOTAL RUN TIME: 0 days 0 hours 1 minutes 56 seconds 116 msec
