                         Program Version 4.2.0 -  RELEASE  -
|  1> #
|  2> # Au03C1_D3H TPSS-D3BJ/Def2-TZVPPD
|  3> #
|  4> ! tpss d3bj def2-tzvppd def2/j grid4 nofinalgrid opt xyzfile numfreq
|  5>
|  6> *xyz 1 1
|  7> Au       0.000000    1.501400   -0.000000
|  8> Au       1.300251   -0.750700   -0.000000
|  9> Au      -1.300251   -0.750700   -0.000000
| 10> *
| 11>
| 12> %maxcore 5000
| 13>
| 14> %pal
| 15> nprocs = 24
| 16> end
| 17>
| 18>
| 19>                          ****END OF INPUT****
 Total Charge           Charge          ....    1
 Multiplicity           Mult            ....    1
 Number of Electrons    NEL             ....   56
Dispersion correction           -0.006115529
FINAL SINGLE POINT ENERGY      -406.900700161644
Dispersion correction            ... done
Dispersion correction           -0.006093414
FINAL SINGLE POINT ENERGY      -406.899050183111
Dispersion correction            ... done
Dispersion correction           -0.006108608
FINAL SINGLE POINT ENERGY      -406.900856134845
Dispersion correction            ... done
Dispersion correction           -0.006110420
FINAL SINGLE POINT ENERGY      -406.900891922949
Dispersion correction            ... done
Dispersion correction           -0.006110145
FINAL SINGLE POINT ENERGY      -406.900889523445
Dispersion correction            ... done
                    ***********************HURRAY********************

CARTESIAN COORDINATES (ANGSTROEM)
---------------------------------
  Au    -0.000000    1.515359    0.000000
  Au     1.312239   -0.757680    0.000000
  Au    -1.312239   -0.757680    0.000000

 Multiplicity           Mult            ....    1
 Number of Electrons    NEL             ....   56
 Basis Dimension        Dim             ....  177

ORBITAL ENERGIES
----------------

  NO   OCC          E(Eh)            E(eV)
   0   2.0000      -4.223687      -114.9324
   1   2.0000      -4.223215      -114.9195
   2   2.0000      -4.223212      -114.9195
   3   2.0000      -2.443603       -66.4938
   4   2.0000      -2.437370       -66.3242
   5   2.0000      -2.437365       -66.3241
   6   2.0000      -2.432148       -66.1821
   7   2.0000      -2.432134       -66.1817
   8   2.0000      -2.430239       -66.1302
   9   2.0000      -2.426544       -66.0296
  10   2.0000      -2.425666       -66.0057
  11   2.0000      -2.425661       -66.0056
  12   2.0000      -0.561832       -15.2882
  13   2.0000      -0.519891       -14.1469
  14   2.0000      -0.519878       -14.1466
  15   2.0000      -0.508244       -13.8300
  16   2.0000      -0.490937       -13.3591
  17   2.0000      -0.478480       -13.0201
  18   2.0000      -0.478466       -13.0197
  19   2.0000      -0.452453       -12.3119
  20   2.0000      -0.452225       -12.3057
  21   2.0000      -0.452225       -12.3057
  22   2.0000      -0.445580       -12.1249
  23   2.0000      -0.445574       -12.1247
  24   2.0000      -0.443421       -12.0661
  25   2.0000      -0.443245       -12.0613
  26   2.0000      -0.443243       -12.0612
  27   2.0000      -0.422222       -11.4892
  28   0.0000      -0.338868        -9.2211
  29   0.0000      -0.338863        -9.2209
  30   0.0000      -0.222828        -6.0634
  31   0.0000      -0.199270        -5.4224
  32   0.0000      -0.184392        -5.0176

MULLIKEN ATOMIC CHARGES
-----------------------
   0 Au:    0.333405
   1 Au:    0.333297
   2 Au:    0.333297
Sum of atomic charges:    1.0000000

LOEWDIN ATOMIC CHARGES
----------------------
   0 Au:    0.333321
   1 Au:    0.333339
   2 Au:    0.333339

  Mayer bond orders larger than 0.100000
B(  0-Au,  1-Au) :   0.6891 B(  0-Au,  2-Au) :   0.6891 B(  1-Au,  2-Au) :   0.6894

Dispersion correction           -0.006110140
FINAL SINGLE POINT ENERGY      -406.900889588566

DIPOLE MOMENT
-------------
                                X             Y             Z
Electronic contribution:      0.00000       0.00002       0.00000
Nuclear contribution   :      0.00000       0.00000       0.00000
                        -----------------------------------------
Total Dipole Moment    :      0.00000       0.00002       0.00000
                        -----------------------------------------
Magnitude (a.u.)       :      0.00002
Magnitude (Debye)      :      0.00005

VIBRATIONAL FREQUENCIES
-----------------------

Scaling factor for frequencies =  1.000000000 (already applied!)

   0:         0.00 cm**-1
   1:         0.00 cm**-1
   2:         0.00 cm**-1
   3:         0.00 cm**-1
   4:         0.00 cm**-1
   5:         0.00 cm**-1
   6:       114.03 cm**-1
   7:       114.15 cm**-1
   8:       175.92 cm**-1

IR SPECTRUM
-----------

 Mode    freq (cm**-1)   T**2         TX         TY         TZ
-------------------------------------------------------------------
   6:       114.03    0.181456  ( -0.425977   0.000455   0.000003)
   7:       114.15    0.241902  (  0.000389   0.491835   0.000001)
   8:       175.92    0.000000  (  0.000009  -0.000230   0.000005)

--------------------------
THERMOCHEMISTRY AT 298.15K
--------------------------

Temperature         ... 298.15 K
Pressure            ... 1.00 atm
Total Mass          ... 590.90 AMU

Throughout the following assumptions are being made:
  (1) The electronic state is orbitally nondegenerate
  (2) There are no thermally accessible electronically excited states
  (3) Hindered rotations indicated by low frequency modes are not
      treated as such but are treated as vibrations and this may
      cause some error
  (4) All equations used are the standard statistical mechanics
      equations for an ideal gas
  (5) All vibrations are strictly harmonic

freq.     114.03  E(vib)   ...       0.44
freq.     114.15  E(vib)   ...       0.44
freq.     175.92  E(vib)   ...       0.38

------------
INNER ENERGY
------------

The inner energy is: U= E(el) + E(ZPE) + E(vib) + E(rot) + E(trans)
    E(el)   - is the total energy from the electronic structure calculation
              = E(kin-el) + E(nuc-el) + E(el-el) + E(nuc-nuc)
    E(ZPE)  - the the zero temperature vibrational energy from the frequency calculation
    E(vib)  - the the finite temperature correction to E(ZPE) due to population
              of excited vibrational states
    E(rot)  - is the rotational thermal energy
    E(trans)- is the translational thermal energy

Summary of contributions to the inner energy U:
Electronic energy                ...   -406.90088960 Eh
Zero point energy                ...      0.00092059 Eh       0.58 kcal/mol
Thermal vibrational correction   ...      0.00201553 Eh       1.26 kcal/mol
Thermal rotational correction    ...      0.00141627 Eh       0.89 kcal/mol
Thermal translational correction ...      0.00141627 Eh       0.89 kcal/mol
-----------------------------------------------------------------------
Total thermal energy                   -406.89512094 Eh

Summary of corrections to the electronic energy:
(perhaps to be used in another calculation)
Total thermal correction                  0.00484807 Eh       3.04 kcal/mol
Non-thermal (ZPE) correction              0.00092059 Eh       0.58 kcal/mol
-----------------------------------------------------------------------
Total correction                          0.00576866 Eh       3.62 kcal/mol

--------
ENTHALPY
--------

The enthalpy is H = U + kB*T
                kB is Boltzmann's constant
Total free energy                 ...   -406.89512094 Eh
Thermal Enthalpy correction       ...      0.00094421 Eh       0.59 kcal/mol
-----------------------------------------------------------------------
Total Enthalpy                    ...   -406.89417674 Eh

Note: Rotational entropy computed according to Herzberg
Infrared and Raman Spectra, Chapter V,1, Van Nostrand Reinhold, 1945
Point Group:  C2v, Symmetry Number:   2
Rotational constants in cm-1:     0.024851     0.024847     0.012425

Vibrational entropy computed according to the QRRHO of S. Grimme
Chem.Eur.J. 2012 18 9955

-------
ENTROPY
-------

The entropy contributions are T*S = T*(S(el)+S(vib)+S(rot)+S(trans))
     S(el)   - electronic entropy
     S(vib)  - vibrational entropy
     S(rot)  - rotational entropy
     S(trans)- translational entropy
The entropies will be listed as mutliplied by the temperature to get
units of energy

Electronic entropy                ...      0.00000000 Eh      0.00 kcal/mol
Vibrational entropy               ...      0.00399518 Eh      2.51 kcal/mol
Rotational entropy                ...      0.01441660 Eh      9.05 kcal/mol
Translational entropy             ...      0.02138721 Eh     13.42 kcal/mol
-----------------------------------------------------------------------
Final entropy term                ...      0.03979899 Eh     24.97 kcal/mol

In case the symmetry of your molecule has not been determined correctly
or in case you have a reason to use a different symmetry number we print
out the resulting rotational entropy values for sn=1,12 :
 --------------------------------------------------------
|  sn= 1 | S(rot)=       0.01507105 Eh      9.46 kcal/mol|
|  sn= 2 | S(rot)=       0.01441660 Eh      9.05 kcal/mol|
|  sn= 3 | S(rot)=       0.01403376 Eh      8.81 kcal/mol|
|  sn= 4 | S(rot)=       0.01376214 Eh      8.64 kcal/mol|
|  sn= 5 | S(rot)=       0.01355145 Eh      8.50 kcal/mol|
|  sn= 6 | S(rot)=       0.01337931 Eh      8.40 kcal/mol|
|  sn= 7 | S(rot)=       0.01323376 Eh      8.30 kcal/mol|
|  sn= 8 | S(rot)=       0.01310768 Eh      8.23 kcal/mol|
|  sn= 9 | S(rot)=       0.01299647 Eh      8.16 kcal/mol|
|  sn=10 | S(rot)=       0.01289700 Eh      8.09 kcal/mol|
|  sn=11 | S(rot)=       0.01280701 Eh      8.04 kcal/mol|
|  sn=12 | S(rot)=       0.01272485 Eh      7.98 kcal/mol|
 --------------------------------------------------------

-------------------
GIBBS FREE ENERGY
-------------------

The Gibbs free energy is G = H - T*S

Total enthalpy                    ...   -406.89417674 Eh
Total entropy correction          ...     -0.03979899 Eh    -24.97 kcal/mol
-----------------------------------------------------------------------
Final Gibbs free energy         ...   -406.93397573 Eh

For completeness - the Gibbs free energy minus the electronic energy
G-E(el)                           ...     -0.03308613 Eh    -20.76 kcal/mol

                             ****ORCA TERMINATED NORMALLY****
TOTAL RUN TIME: 0 days 0 hours 1 minutes 5 seconds 453 msec
