                         Program Version 4.2.0 -  RELEASE  -
|  1> #
|  2> # Au03N0_LIN TPSS-D3BJ/Def2-TZVPPD
|  3> #
|  4> ! tpss d3bj def2-tzvppd def2/j grid4 nofinalgrid opt xyzfile numfreq
|  5>
|  6> *xyz 0 2
|  7> Au       0.000000    0.000000    0.000000
|  8> Au       0.000000    0.000000    2.547414
|  9> Au       0.000000    0.000000   -2.547414
| 10> *
| 11>
| 12> %maxcore 5000
| 13>
| 14> %pal
| 15> nprocs = 24
| 16> end
| 17>
| 18>
| 19>                          ****END OF INPUT****
 Total Charge           Charge          ....    0
 Multiplicity           Mult            ....    2
 Number of Electrons    NEL             ....   57
Dispersion correction           -0.004853766
FINAL SINGLE POINT ENERGY      -407.151183208557
Dispersion correction            ... done
Dispersion correction           -0.004694861
FINAL SINGLE POINT ENERGY      -407.148778103868
Dispersion correction            ... done
Dispersion correction           -0.004808120
FINAL SINGLE POINT ENERGY      -407.151243559039
Dispersion correction            ... done
Dispersion correction           -0.004825431
FINAL SINGLE POINT ENERGY      -407.151295901732
Dispersion correction            ... done
Dispersion correction           -0.004821656
FINAL SINGLE POINT ENERGY      -407.151292149722
Dispersion correction            ... done
                    ***********************HURRAY********************

CARTESIAN COORDINATES (ANGSTROEM)
---------------------------------
  Au     0.000000   -0.000000    0.000043
  Au    -0.000000    0.000000    2.568829
  Au    -0.000000    0.000000   -2.568872

 Multiplicity           Mult            ....    2
 Number of Electrons    NEL             ....   57
 Basis Dimension        Dim             ....  177

ORBITAL ENERGIES
----------------
                 SPIN UP ORBITALS
  NO   OCC          E(Eh)            E(eV)
   0   1.0000      -4.021501      -109.4306
   1   1.0000      -4.021480      -109.4300
   2   1.0000      -4.008353      -109.0728
   3   1.0000      -2.238549       -60.9140
   4   1.0000      -2.236154       -60.8489
   5   1.0000      -2.227136       -60.6034
   6   1.0000      -2.227136       -60.6034
   7   1.0000      -2.227109       -60.6027
   8   1.0000      -2.227109       -60.6027
   9   1.0000      -2.223091       -60.4934
  10   1.0000      -2.211272       -60.1718
  11   1.0000      -2.211272       -60.1718
  12   1.0000      -0.355667        -9.6782
  13   1.0000      -0.303211        -8.2508
  14   1.0000      -0.303211        -8.2508
  15   1.0000      -0.283220        -7.7068
  16   1.0000      -0.275577        -7.4988
  17   1.0000      -0.275577        -7.4988
  18   1.0000      -0.268261        -7.2997
  19   1.0000      -0.268248        -7.2994
  20   1.0000      -0.266014        -7.2386
  21   1.0000      -0.266001        -7.2383
  22   1.0000      -0.251382        -6.8404
  23   1.0000      -0.241141        -6.5618
  24   1.0000      -0.241123        -6.5613
  25   1.0000      -0.227887        -6.2011
  26   1.0000      -0.227176        -6.1818
  27   1.0000      -0.227176        -6.1818
  28   1.0000      -0.223458        -6.0806
  29   0.0000      -0.123658        -3.3649
  30   0.0000      -0.050645        -1.3781
  31   0.0000      -0.050645        -1.3781
  32   0.0000      -0.030752        -0.8368
  33   0.0000      -0.011862        -0.3228

                 SPIN DOWN ORBITALS
  NO   OCC          E(Eh)            E(eV)
   0   1.0000      -4.020614      -109.4065
   1   1.0000      -4.020593      -109.4059
   2   1.0000      -4.008503      -109.0769
   3   1.0000      -2.237104       -60.8747
   4   1.0000      -2.234377       -60.8005
   5   1.0000      -2.226658       -60.5904
   6   1.0000      -2.226658       -60.5904
   7   1.0000      -2.226631       -60.5897
   8   1.0000      -2.226631       -60.5897
   9   1.0000      -2.222926       -60.4889
  10   1.0000      -2.211568       -60.1798
  11   1.0000      -2.211568       -60.1798
  12   1.0000      -0.352727        -9.5982
  13   1.0000      -0.299841        -8.1591
  14   1.0000      -0.299841        -8.1591
  15   1.0000      -0.279568        -7.6074
  16   1.0000      -0.270713        -7.3665
  17   1.0000      -0.270713        -7.3665
  18   1.0000      -0.261269        -7.1095
  19   1.0000      -0.261256        -7.1091
  20   1.0000      -0.258196        -7.0259
  21   1.0000      -0.258183        -7.0255
  22   1.0000      -0.240498        -6.5443
  23   1.0000      -0.240481        -6.5438
  24   1.0000      -0.239103        -6.5063
  25   1.0000      -0.225309        -6.1310
  26   1.0000      -0.225309        -6.1310
  27   1.0000      -0.222071        -6.0429
  28   0.0000      -0.210940        -5.7400
  29   0.0000      -0.115616        -3.1461
  30   0.0000      -0.042358        -1.1526
  31   0.0000      -0.042358        -1.1526
  32   0.0000      -0.021980        -0.5981

MULLIKEN ATOMIC CHARGES AND SPIN POPULATIONS
--------------------------------------------
   0 Au:   -0.158275    0.023272
   1 Au:    0.079107    0.488350
   2 Au:    0.079169    0.488378
Sum of atomic charges         :    0.0000000

LOEWDIN ATOMIC CHARGES AND SPIN POPULATIONS
-------------------------------------------
   0 Au:   -0.182786    0.267435
   1 Au:    0.091368    0.366267
   2 Au:    0.091419    0.366298

  Mayer bond orders larger than 0.100000
B(  0-Au,  1-Au) :   0.7218 B(  0-Au,  2-Au) :   0.7217 B(  1-Au,  2-Au) :   0.3491

Dispersion correction           -0.004821698
FINAL SINGLE POINT ENERGY      -407.151292192964

DIPOLE MOMENT
-------------
                                X             Y             Z
Electronic contribution:      0.00000      -0.00000      -0.00031
Nuclear contribution   :      0.00000      -0.00000       0.00000
                        -----------------------------------------
Total Dipole Moment    :      0.00000      -0.00000      -0.00031
                        -----------------------------------------
Magnitude (a.u.)       :      0.00031
Magnitude (Debye)      :      0.00079

VIBRATIONAL FREQUENCIES
-----------------------

Scaling factor for frequencies =  1.000000000 (already applied!)

   0:         0.00 cm**-1
   1:         0.00 cm**-1
   2:         0.00 cm**-1
   3:         0.00 cm**-1
   4:         0.00 cm**-1
   5:       -43.46 cm**-1 ***imaginary mode***
   6:       -43.37 cm**-1 ***imaginary mode***
   7:       111.68 cm**-1
   8:       177.36 cm**-1

IR SPECTRUM
-----------

 Mode    freq (cm**-1)   T**2         TX         TY         TZ
-------------------------------------------------------------------
   7:       111.68    0.000027  ( -0.000000  -0.000007  -0.005194)
   8:       177.36    0.006928  (  0.000074   0.000000   0.083234)

--------------------------
THERMOCHEMISTRY AT 298.15K
--------------------------

Temperature         ... 298.15 K
Pressure            ... 1.00 atm
Total Mass          ... 590.90 AMU
The molecule is recognized as being linear

Throughout the following assumptions are being made:
  (1) The electronic state is orbitally nondegenerate
      but the spin degeneracy is treated
  (2) There are no thermally accessible electronically excited states
  (3) Hindered rotations indicated by low frequency modes are not
      treated as such but are treated as vibrations and this may
      cause some error
  (4) All equations used are the standard statistical mechanics
      equations for an ideal gas
  (5) All vibrations are strictly harmonic

freq.     111.68  E(vib)   ...       0.45
freq.     177.36  E(vib)   ...       0.37

------------
INNER ENERGY
------------

The inner energy is: U= E(el) + E(ZPE) + E(vib) + E(rot) + E(trans)
    E(el)   - is the total energy from the electronic structure calculation
              = E(kin-el) + E(nuc-el) + E(el-el) + E(nuc-nuc)
    E(ZPE)  - the the zero temperature vibrational energy from the frequency calculation
    E(vib)  - the the finite temperature correction to E(ZPE) due to population
              of excited vibrational states
    E(rot)  - is the rotational thermal energy
    E(trans)- is the translational thermal energy

Summary of contributions to the inner energy U:
Electronic energy                ...   -407.15129219 Eh
Zero point energy                ...      0.00065849 Eh       0.41 kcal/mol
Thermal vibrational correction   ...      0.00130962 Eh       0.82 kcal/mol
Thermal rotational correction    ...      0.00094418 Eh       0.59 kcal/mol
Thermal translational correction ...      0.00141627 Eh       0.89 kcal/mol
-----------------------------------------------------------------------
Total thermal energy                   -407.14696363 Eh

Summary of corrections to the electronic energy:
(perhaps to be used in another calculation)
Total thermal correction                  0.00367007 Eh       2.30 kcal/mol
Non-thermal (ZPE) correction              0.00065849 Eh       0.41 kcal/mol
-----------------------------------------------------------------------
Total correction                          0.00432856 Eh       2.72 kcal/mol

--------
ENTHALPY
--------

The enthalpy is H = U + kB*T
                kB is Boltzmann's constant
Total free energy                 ...   -407.14696363 Eh
Thermal Enthalpy correction       ...      0.00094421 Eh       0.59 kcal/mol
-----------------------------------------------------------------------
Total Enthalpy                    ...   -407.14601942 Eh

Note: Rotational entropy computed according to Herzberg
Infrared and Raman Spectra, Chapter V,1, Van Nostrand Reinhold, 1945
Point Group:  Cinfv, Symmetry Number:   1
Rotational constants in cm-1:     0.000000     0.006485     0.006485

Vibrational entropy computed according to the QRRHO of S. Grimme
Chem.Eur.J. 2012 18 9955

-------
ENTROPY
-------

The entropy contributions are T*S = T*(S(el)+S(vib)+S(rot)+S(trans))
     S(el)   - electronic entropy
     S(vib)  - vibrational entropy
     S(rot)  - rotational entropy
     S(trans)- translational entropy
The entropies will be listed as mutliplied by the temperature to get
units of energy

Electronic entropy                ...      0.00065446 Eh      0.41 kcal/mol
Vibrational entropy               ...      0.00256372 Eh      1.61 kcal/mol
Rotational entropy                ...      0.01073732 Eh      6.74 kcal/mol
Translational entropy             ...      0.02138721 Eh     13.42 kcal/mol
-----------------------------------------------------------------------
Final entropy term                ...      0.03534271 Eh     22.18 kcal/mol

In case the symmetry of your molecule has not been determined correctly
or in case you have a reason to use a different symmetry number we print
out the resulting rotational entropy values for sn=1,12 :
 --------------------------------------------------------
|  sn= 1 | S(rot)=      -0.00128449 Eh     -0.81 kcal/mol|
|  sn= 2 | S(rot)=      -0.00193895 Eh     -1.22 kcal/mol|
|  sn= 3 | S(rot)=      -0.00232178 Eh     -1.46 kcal/mol|
|  sn= 4 | S(rot)=      -0.00259340 Eh     -1.63 kcal/mol|
|  sn= 5 | S(rot)=      -0.00280409 Eh     -1.76 kcal/mol|
|  sn= 6 | S(rot)=      -0.00297624 Eh     -1.87 kcal/mol|
|  sn= 7 | S(rot)=      -0.00312178 Eh     -1.96 kcal/mol|
|  sn= 8 | S(rot)=      -0.00324786 Eh     -2.04 kcal/mol|
|  sn= 9 | S(rot)=      -0.00335907 Eh     -2.11 kcal/mol|
|  sn=10 | S(rot)=      -0.00345855 Eh     -2.17 kcal/mol|
|  sn=11 | S(rot)=      -0.00354854 Eh     -2.23 kcal/mol|
|  sn=12 | S(rot)=      -0.00363069 Eh     -2.28 kcal/mol|
 --------------------------------------------------------

-------------------
GIBBS FREE ENERGY
-------------------

The Gibbs free energy is G = H - T*S

Total enthalpy                    ...   -407.14601942 Eh
Total entropy correction          ...     -0.03534271 Eh    -22.18 kcal/mol
-----------------------------------------------------------------------
Final Gibbs free energy         ...   -407.18136213 Eh

For completeness - the Gibbs free energy minus the electronic energy
G-E(el)                           ...     -0.03006994 Eh    -18.87 kcal/mol

                             ****ORCA TERMINATED NORMALLY****
TOTAL RUN TIME: 0 days 0 hours 1 minutes 8 seconds 520 msec
