                         Program Version 4.2.0 -  RELEASE  -
|  1> #
|  2> # Au03N0_D3H TPSS-D3BJ/Def2-TZVPPD
|  3> #
|  4> ! tpss d3bj def2-tzvppd def2/j grid4 nofinalgrid opt xyzfile numfreq
|  5>
|  6> *xyz 0 2
|  7> Au       0.000000    1.515176   -0.000000
|  8> Au       1.312181   -0.757588    0.000000
|  9> Au      -1.312181   -0.757588   -0.000000
| 10> *
| 11>
| 12> %maxcore 5000
| 13>
| 14> %pal
| 15> nprocs = 24
| 16> end
| 17>
| 18>
| 19>                          ****END OF INPUT****
 Total Charge           Charge          ....    0
 Multiplicity           Mult            ....    2
 Number of Electrons    NEL             ....   57
Dispersion correction           -0.006110190
FINAL SINGLE POINT ENERGY      -407.151533047407   (Wavefunction not fully converged!)
Dispersion correction            ... done
Dispersion correction           -0.006094723
FINAL SINGLE POINT ENERGY      -407.153615108825
Dispersion correction            ... done
Dispersion correction           -0.006105333
FINAL SINGLE POINT ENERGY      -407.152798516104
Dispersion correction            ... done
Dispersion correction           -0.006099037
FINAL SINGLE POINT ENERGY      -407.153738470530
Dispersion correction            ... done
                    ***********************HURRAY********************

CARTESIAN COORDINATES (ANGSTROEM)
---------------------------------
  Au     0.000029    1.591552    0.000000
  Au     1.285808   -0.795749    0.000000
  Au    -1.285837   -0.795803    0.000000

 Multiplicity           Mult            ....    2
 Number of Electrons    NEL             ....   57
 Basis Dimension        Dim             ....  177

ORBITAL ENERGIES
----------------
                 SPIN UP ORBITALS
  NO   OCC          E(Eh)            E(eV)
   0   1.0000      -4.029160      -109.6390
   1   1.0000      -4.028739      -109.6276
   2   1.0000      -4.012767      -109.1929
   3   1.0000      -2.247489       -61.1573
   4   1.0000      -2.240149       -60.9576
   5   1.0000      -2.237157       -60.8761
   6   1.0000      -2.235573       -60.8330
   7   1.0000      -2.232856       -60.7591
   8   1.0000      -2.232110       -60.7388
   9   1.0000      -2.225115       -60.5485
  10   1.0000      -2.220701       -60.4284
  11   1.0000      -2.214174       -60.2507
  12   1.0000      -0.360196        -9.8014
  13   1.0000      -0.327844        -8.9211
  14   1.0000      -0.309877        -8.4322
  15   1.0000      -0.308728        -8.4009
  16   1.0000      -0.293656        -7.9908
  17   1.0000      -0.284861        -7.7515
  18   1.0000      -0.274493        -7.4693
  19   1.0000      -0.264437        -7.1957
  20   1.0000      -0.255687        -6.9576
  21   1.0000      -0.253174        -6.8892
  22   1.0000      -0.250679        -6.8213
  23   1.0000      -0.249770        -6.7966
  24   1.0000      -0.243333        -6.6214
  25   1.0000      -0.243310        -6.6208
  26   1.0000      -0.242759        -6.6058
  27   1.0000      -0.227529        -6.1914
  28   1.0000      -0.168056        -4.5730
  29   0.0000      -0.163092        -4.4380
  30   0.0000      -0.057518        -1.5651
  31   0.0000      -0.042163        -1.1473
  32   0.0000      -0.024964        -0.6793
  33   0.0000      -0.021271        -0.5788

                 SPIN DOWN ORBITALS
  NO   OCC          E(Eh)            E(eV)
   0   1.0000      -4.028371      -109.6176
   1   1.0000      -4.027949      -109.6061
   2   1.0000      -4.010788      -109.1391
   3   1.0000      -2.246589       -61.1328
   4   1.0000      -2.239126       -60.9297
   5   1.0000      -2.235933       -60.8428
   6   1.0000      -2.234483       -60.8034
   7   1.0000      -2.232368       -60.7458
   8   1.0000      -2.231621       -60.7255
   9   1.0000      -2.222686       -60.4824
  10   1.0000      -2.218531       -60.3693
  11   1.0000      -2.212402       -60.2025
  12   1.0000      -0.356819        -9.7095
  13   1.0000      -0.324927        -8.8417
  14   1.0000      -0.308225        -8.3872
  15   1.0000      -0.301303        -8.1989
  16   1.0000      -0.289071        -7.8660
  17   1.0000      -0.282372        -7.6837
  18   1.0000      -0.271016        -7.3747
  19   1.0000      -0.261728        -7.1220
  20   1.0000      -0.254373        -6.9218
  21   1.0000      -0.251077        -6.8322
  22   1.0000      -0.249519        -6.7898
  23   1.0000      -0.244012        -6.6399
  24   1.0000      -0.238511        -6.4902
  25   1.0000      -0.236376        -6.4321
  26   1.0000      -0.235460        -6.4072
  27   1.0000      -0.220343        -5.9958
  28   0.0000      -0.157450        -4.2844
  29   0.0000      -0.144567        -3.9339
  30   0.0000      -0.052228        -1.4212
  31   0.0000      -0.031557        -0.8587
  32   0.0000      -0.016421        -0.4468

MULLIKEN ATOMIC CHARGES AND SPIN POPULATIONS
--------------------------------------------
   0 Au:   -0.102694    0.640142
   1 Au:    0.051389    0.179811
   2 Au:    0.051305    0.180048
Sum of atomic charges         :    0.0000000

LOEWDIN ATOMIC CHARGES AND SPIN POPULATIONS
-------------------------------------------
   0 Au:   -0.068210    0.540477
   1 Au:    0.034134    0.229685
   2 Au:    0.034077    0.229839

  Mayer bond orders larger than 0.100000
B(  0-Au,  1-Au) :   0.6089 B(  0-Au,  2-Au) :   0.6089 B(  1-Au,  2-Au) :   0.8440

Dispersion correction           -0.006099299
FINAL SINGLE POINT ENERGY      -407.153739779984

DIPOLE MOMENT
-------------
                                X             Y             Z
Electronic contribution:      0.00024      -0.49272      -0.00000
Nuclear contribution   :      0.00000       0.00000       0.00000
                        -----------------------------------------
Total Dipole Moment    :      0.00024      -0.49272      -0.00000
                        -----------------------------------------
Magnitude (a.u.)       :      0.49272
Magnitude (Debye)      :      1.25240

VIBRATIONAL FREQUENCIES
-----------------------

Scaling factor for frequencies =  1.000000000 (already applied!)

   0:         0.00 cm**-1
   1:         0.00 cm**-1
   2:         0.00 cm**-1
   3:         0.00 cm**-1
   4:         0.00 cm**-1
   5:         0.00 cm**-1
   6:      -110.05 cm**-1 ***imaginary mode***
   7:       110.22 cm**-1
   8:       168.64 cm**-1

IR SPECTRUM
-----------

 Mode    freq (cm**-1)   T**2         TX         TY         TZ
-------------------------------------------------------------------
   7:       110.22    0.136332  (  0.010247  -0.369089   0.000003)
   8:       168.64    0.018618  (  0.009439  -0.136121  -0.000006)

--------------------------
THERMOCHEMISTRY AT 298.15K
--------------------------

Temperature         ... 298.15 K
Pressure            ... 1.00 atm
Total Mass          ... 590.90 AMU

Throughout the following assumptions are being made:
  (1) The electronic state is orbitally nondegenerate
      but the spin degeneracy is treated
  (2) There are no thermally accessible electronically excited states
  (3) Hindered rotations indicated by low frequency modes are not
      treated as such but are treated as vibrations and this may
      cause some error
  (4) All equations used are the standard statistical mechanics
      equations for an ideal gas
  (5) All vibrations are strictly harmonic

freq.     110.22  E(vib)   ...       0.45
freq.     168.64  E(vib)   ...       0.38

------------
INNER ENERGY
------------

The inner energy is: U= E(el) + E(ZPE) + E(vib) + E(rot) + E(trans)
    E(el)   - is the total energy from the electronic structure calculation
              = E(kin-el) + E(nuc-el) + E(el-el) + E(nuc-nuc)
    E(ZPE)  - the the zero temperature vibrational energy from the frequency calculation
    E(vib)  - the the finite temperature correction to E(ZPE) due to population
              of excited vibrational states
    E(rot)  - is the rotational thermal energy
    E(trans)- is the translational thermal energy

Summary of contributions to the inner energy U:
Electronic energy                ...   -407.15373978 Eh
Zero point energy                ...      0.00063530 Eh       0.40 kcal/mol
Thermal vibrational correction   ...      0.00132682 Eh       0.83 kcal/mol
Thermal rotational correction    ...      0.00141627 Eh       0.89 kcal/mol
Thermal translational correction ...      0.00141627 Eh       0.89 kcal/mol
-----------------------------------------------------------------------
Total thermal energy                   -407.14894512 Eh

Summary of corrections to the electronic energy:
(perhaps to be used in another calculation)
Total thermal correction                  0.00415936 Eh       2.61 kcal/mol
Non-thermal (ZPE) correction              0.00063530 Eh       0.40 kcal/mol
-----------------------------------------------------------------------
Total correction                          0.00479466 Eh       3.01 kcal/mol

--------
ENTHALPY
--------

The enthalpy is H = U + kB*T
                kB is Boltzmann's constant
Total free energy                 ...   -407.14894512 Eh
Thermal Enthalpy correction       ...      0.00094421 Eh       0.59 kcal/mol
-----------------------------------------------------------------------
Total Enthalpy                    ...   -407.14800091 Eh

Note: Rotational entropy computed according to Herzberg
Infrared and Raman Spectra, Chapter V,1, Van Nostrand Reinhold, 1945
Point Group:  Cs, Symmetry Number:   1
Rotational constants in cm-1:     0.025883     0.022525     0.012044

Vibrational entropy computed according to the QRRHO of S. Grimme
Chem.Eur.J. 2012 18 9955

-------
ENTROPY
-------

The entropy contributions are T*S = T*(S(el)+S(vib)+S(rot)+S(trans))
     S(el)   - electronic entropy
     S(vib)  - vibrational entropy
     S(rot)  - rotational entropy
     S(trans)- translational entropy
The entropies will be listed as mutliplied by the temperature to get
units of energy

Electronic entropy                ...      0.00065446 Eh      0.41 kcal/mol
Vibrational entropy               ...      0.00261248 Eh      1.64 kcal/mol
Rotational entropy                ...      0.01511287 Eh      9.48 kcal/mol
Translational entropy             ...      0.02138721 Eh     13.42 kcal/mol
-----------------------------------------------------------------------
Final entropy term                ...      0.03976702 Eh     24.95 kcal/mol

In case the symmetry of your molecule has not been determined correctly
or in case you have a reason to use a different symmetry number we print
out the resulting rotational entropy values for sn=1,12 :
 --------------------------------------------------------
|  sn= 1 | S(rot)=       0.01511287 Eh      9.48 kcal/mol|
|  sn= 2 | S(rot)=       0.01445841 Eh      9.07 kcal/mol|
|  sn= 3 | S(rot)=       0.01407558 Eh      8.83 kcal/mol|
|  sn= 4 | S(rot)=       0.01380395 Eh      8.66 kcal/mol|
|  sn= 5 | S(rot)=       0.01359327 Eh      8.53 kcal/mol|
|  sn= 6 | S(rot)=       0.01342112 Eh      8.42 kcal/mol|
|  sn= 7 | S(rot)=       0.01327558 Eh      8.33 kcal/mol|
|  sn= 8 | S(rot)=       0.01314950 Eh      8.25 kcal/mol|
|  sn= 9 | S(rot)=       0.01303829 Eh      8.18 kcal/mol|
|  sn=10 | S(rot)=       0.01293881 Eh      8.12 kcal/mol|
|  sn=11 | S(rot)=       0.01284882 Eh      8.06 kcal/mol|
|  sn=12 | S(rot)=       0.01276667 Eh      8.01 kcal/mol|
 --------------------------------------------------------

-------------------
GIBBS FREE ENERGY
-------------------

The Gibbs free energy is G = H - T*S

Total enthalpy                    ...   -407.14800091 Eh
Total entropy correction          ...     -0.03976702 Eh    -24.95 kcal/mol
-----------------------------------------------------------------------
Final Gibbs free energy         ...   -407.18776793 Eh

For completeness - the Gibbs free energy minus the electronic energy
G-E(el)                           ...     -0.03402815 Eh    -21.35 kcal/mol

                             ****ORCA TERMINATED NORMALLY****
TOTAL RUN TIME: 0 days 0 hours 1 minutes 35 seconds 858 msec
