                         Program Version 4.2.0 -  RELEASE  -
|  1> #
|  2> # Cu02N0 TPSS-D3BJ/Def2-TZVPPD
|  3> #
|  4> ! tpss d3bj def2-tzvppd def2/j grid4 nofinalgrid opt xyzfile numfreq
|  5>
|  6> *xyz 0 1
|  7> Cu       0.000000    0.000000    1.107490
|  8> Cu       0.000000    0.000000   -1.107490
|  9> *
| 10>
| 11> %maxcore 5000
| 12>
| 13> %pal
| 14> nprocs = 24
| 15> end
| 16>
| 17>
| 18>                          ****END OF INPUT****
 Total Charge           Charge          ....    0
 Multiplicity           Mult            ....    1
 Number of Electrons    NEL             ....   58
Dispersion correction           -0.001401256
FINAL SINGLE POINT ENERGY     -3281.114897449815
Dispersion correction            ... done
Dispersion correction           -0.001401270
FINAL SINGLE POINT ENERGY     -3281.114904244011
Dispersion correction            ... done
Dispersion correction           -0.001401843
FINAL SINGLE POINT ENERGY     -3281.115021880905
Dispersion correction            ... done
Dispersion correction           -0.001401884
FINAL SINGLE POINT ENERGY     -3281.115022767504
Dispersion correction            ... done
                    ***********************HURRAY********************

CARTESIAN COORDINATES (ANGSTROEM)
---------------------------------
  Cu     0.000000    0.000000    1.121151
  Cu     0.000000    0.000000   -1.121151

 Multiplicity           Mult            ....    1
 Number of Electrons    NEL             ....   58
 Basis Dimension        Dim             ....  134

ORBITAL ENERGIES
----------------

  NO   OCC          E(Eh)            E(eV)
   0   2.0000    -322.078020     -8764.1885
   1   2.0000    -322.078013     -8764.1883
   2   2.0000     -38.368357     -1044.0561
   3   2.0000     -38.368311     -1044.0548
   4   2.0000     -33.587312      -913.9572
   5   2.0000     -33.587312      -913.9572
   6   2.0000     -33.587307      -913.9571
   7   2.0000     -33.587307      -913.9571
   8   2.0000     -33.587275      -913.9562
   9   2.0000     -33.587274      -913.9562
  10   2.0000      -4.127060      -112.3030
  11   2.0000      -4.126509      -112.2880
  12   2.0000      -2.643936       -71.9451
  13   2.0000      -2.639318       -71.8195
  14   2.0000      -2.637160       -71.7608
  15   2.0000      -2.637160       -71.7608
  16   2.0000      -2.636710       -71.7485
  17   2.0000      -2.636710       -71.7485
  18   2.0000      -0.231505        -6.2996
  19   2.0000      -0.208049        -5.6613
  20   2.0000      -0.208049        -5.6613
  21   2.0000      -0.189509        -5.1568
  22   2.0000      -0.189503        -5.1566
  23   2.0000      -0.184349        -5.0164
  24   2.0000      -0.181454        -4.9376
  25   2.0000      -0.181448        -4.9374
  26   2.0000      -0.174731        -4.7547
  27   2.0000      -0.174731        -4.7547
  28   2.0000      -0.172985        -4.7072
  29   0.0000      -0.103353        -2.8124
  30   0.0000      -0.036155        -0.9838
  31   0.0000      -0.036155        -0.9838
  32   0.0000      -0.014191        -0.3862
  33   0.0000       0.031285         0.8513

MULLIKEN ATOMIC CHARGES
-----------------------
   0 Cu:   -0.000002
   1 Cu:    0.000002
Sum of atomic charges:   -0.0000000

LOEWDIN ATOMIC CHARGES
----------------------
   0 Cu:   -0.000000
   1 Cu:    0.000000

  Mayer bond orders larger than 0.100000
B(  0-Cu,  1-Cu) :   1.1081

Dispersion correction           -0.001401886
FINAL SINGLE POINT ENERGY     -3281.115022784137

DIPOLE MOMENT
-------------
                                X             Y             Z
Electronic contribution:     -0.00000      -0.00000       0.00000
Nuclear contribution   :      0.00000       0.00000       0.00000
                        -----------------------------------------
Total Dipole Moment    :     -0.00000      -0.00000       0.00000
                        -----------------------------------------
Magnitude (a.u.)       :      0.00000
Magnitude (Debye)      :      0.00000

VIBRATIONAL FREQUENCIES
-----------------------

Scaling factor for frequencies =  1.000000000 (already applied!)

   0:         0.00 cm**-1
   1:         0.00 cm**-1
   2:         0.00 cm**-1
   3:         0.00 cm**-1
   4:         0.00 cm**-1
   5:       262.56 cm**-1

IR SPECTRUM
-----------

 Mode    freq (cm**-1)   T**2         TX         TY         TZ
-------------------------------------------------------------------
   5:       262.56    0.000000  (  0.000033  -0.000014   0.000384)

--------------------------
THERMOCHEMISTRY AT 298.15K
--------------------------

Temperature         ... 298.15 K
Pressure            ... 1.00 atm
Total Mass          ... 127.10 AMU
The molecule is recognized as being linear

Throughout the following assumptions are being made:
  (1) The electronic state is orbitally nondegenerate
  (2) There are no thermally accessible electronically excited states
  (3) Hindered rotations indicated by low frequency modes are not
      treated as such but are treated as vibrations and this may
      cause some error
  (4) All equations used are the standard statistical mechanics
      equations for an ideal gas
  (5) All vibrations are strictly harmonic

freq.     262.56  E(vib)   ...       0.29

------------
INNER ENERGY
------------

The inner energy is: U= E(el) + E(ZPE) + E(vib) + E(rot) + E(trans)
    E(el)   - is the total energy from the electronic structure calculation
              = E(kin-el) + E(nuc-el) + E(el-el) + E(nuc-nuc)
    E(ZPE)  - the the zero temperature vibrational energy from the frequency calculation
    E(vib)  - the the finite temperature correction to E(ZPE) due to population
              of excited vibrational states
    E(rot)  - is the rotational thermal energy
    E(trans)- is the translational thermal energy

Summary of contributions to the inner energy U:
Electronic energy                ...  -3281.11502300 Eh
Zero point energy                ...      0.00059816 Eh       0.38 kcal/mol
Thermal vibrational correction   ...      0.00046910 Eh       0.29 kcal/mol
Thermal rotational correction    ...      0.00094418 Eh       0.59 kcal/mol
Thermal translational correction ...      0.00141627 Eh       0.89 kcal/mol
-----------------------------------------------------------------------
Total thermal energy                  -3281.11159528 Eh

Summary of corrections to the electronic energy:
(perhaps to be used in another calculation)
Total thermal correction                  0.00282956 Eh       1.78 kcal/mol
Non-thermal (ZPE) correction              0.00059816 Eh       0.38 kcal/mol
-----------------------------------------------------------------------
Total correction                          0.00342772 Eh       2.15 kcal/mol

--------
ENTHALPY
--------

The enthalpy is H = U + kB*T
                kB is Boltzmann's constant
Total free energy                 ...  -3281.11159528 Eh
Thermal Enthalpy correction       ...      0.00094421 Eh       0.59 kcal/mol
-----------------------------------------------------------------------
Total Enthalpy                    ...  -3281.11065107 Eh

Note: Rotational entropy computed according to Herzberg
Infrared and Raman Spectra, Chapter V,1, Van Nostrand Reinhold, 1945
Point Group:  Dinfh, Symmetry Number:   2
Rotational constants in cm-1:     0.000000     0.105517     0.105517

Vibrational entropy computed according to the QRRHO of S. Grimme
Chem.Eur.J. 2012 18 9955

-------
ENTROPY
-------

The entropy contributions are T*S = T*(S(el)+S(vib)+S(rot)+S(trans))
     S(el)   - electronic entropy
     S(vib)  - vibrational entropy
     S(rot)  - rotational entropy
     S(trans)- translational entropy
The entropies will be listed as mutliplied by the temperature to get
units of energy

Electronic entropy                ...      0.00000000 Eh      0.00 kcal/mol
Vibrational entropy               ...      0.00078391 Eh      0.49 kcal/mol
Rotational entropy                ...      0.00744916 Eh      4.67 kcal/mol
Translational entropy             ...      0.01921087 Eh     12.05 kcal/mol
-----------------------------------------------------------------------
Final entropy term                ...      0.02744394 Eh     17.22 kcal/mol

In case the symmetry of your molecule has not been determined correctly
or in case you have a reason to use a different symmetry number we print
out the resulting rotational entropy values for sn=1,12 :
 --------------------------------------------------------
|  sn= 1 | S(rot)=             -inf Eh      -inf kcal/mol|
|  sn= 2 | S(rot)=             -inf Eh      -inf kcal/mol|
|  sn= 3 | S(rot)=             -inf Eh      -inf kcal/mol|
|  sn= 4 | S(rot)=             -inf Eh      -inf kcal/mol|
|  sn= 5 | S(rot)=             -inf Eh      -inf kcal/mol|
|  sn= 6 | S(rot)=             -inf Eh      -inf kcal/mol|
|  sn= 7 | S(rot)=             -inf Eh      -inf kcal/mol|
|  sn= 8 | S(rot)=             -inf Eh      -inf kcal/mol|
|  sn= 9 | S(rot)=             -inf Eh      -inf kcal/mol|
|  sn=10 | S(rot)=             -inf Eh      -inf kcal/mol|
|  sn=11 | S(rot)=             -inf Eh      -inf kcal/mol|
|  sn=12 | S(rot)=             -inf Eh      -inf kcal/mol|
 --------------------------------------------------------

-------------------
GIBBS FREE ENERGY
-------------------

The Gibbs free energy is G = H - T*S

Total enthalpy                    ...  -3281.11065107 Eh
Total entropy correction          ...     -0.02744394 Eh    -17.22 kcal/mol
-----------------------------------------------------------------------
Final Gibbs free energy         ...  -3281.13809501 Eh

For completeness - the Gibbs free energy minus the electronic energy
G-E(el)                           ...     -0.02307201 Eh    -14.48 kcal/mol

                             ****ORCA TERMINATED NORMALLY****
TOTAL RUN TIME: 0 days 0 hours 0 minutes 29 seconds 219 msec
