                         Program Version 4.2.0 -  RELEASE  -
|  1> #
|  2> # Cu03C1_LIN TPSS-D3BJ/Def2-TZVPPD
|  3> #
|  4> ! tpss d3bj def2-tzvppd def2/j grid4 nofinalgrid opt xyzfile numfreq
|  5>
|  6> *xyz 1 1
|  7> Cu       0.000000    0.000000    0.000000
|  8> Cu       0.000000    0.000000    2.337165
|  9> Cu       0.000000    0.000000   -2.337165
| 10> *
| 11>
| 12> %maxcore 5000
| 13>
| 14> %pal
| 15> nprocs = 24
| 16> end
| 17>
| 18>
| 19>                          ****END OF INPUT****
 Total Charge           Charge          ....    1
 Multiplicity           Mult            ....    1
 Number of Electrons    NEL             ....   86
Dispersion correction           -0.003416204
FINAL SINGLE POINT ENERGY     -4921.409097773909
Dispersion correction            ... done
Dispersion correction           -0.003416373
FINAL SINGLE POINT ENERGY     -4921.409098738598
Dispersion correction            ... done
Dispersion correction           -0.003422976
FINAL SINGLE POINT ENERGY     -4921.409100734207
Dispersion correction            ... done
                    ***********************HURRAY********************

CARTESIAN COORDINATES (ANGSTROEM)
---------------------------------
  Cu    -0.000000   -0.000000   -0.000000
  Cu     0.000000    0.000000    2.330440
  Cu     0.000000    0.000000   -2.330440

 Multiplicity           Mult            ....    1
 Number of Electrons    NEL             ....   86
 Basis Dimension        Dim             ....  201

ORBITAL ENERGIES
----------------

  NO   OCC          E(Eh)            E(eV)
   0   2.0000    -322.300357     -8770.2386
   1   2.0000    -322.300352     -8770.2385
   2   2.0000    -322.266343     -8769.3130
   3   2.0000     -38.584628     -1049.9411
   4   2.0000     -38.584607     -1049.9405
   5   2.0000     -38.558287     -1049.2243
   6   2.0000     -33.804482      -919.8667
   7   2.0000     -33.804477      -919.8666
   8   2.0000     -33.803700      -919.8454
   9   2.0000     -33.803700      -919.8454
  10   2.0000     -33.803696      -919.8453
  11   2.0000     -33.803696      -919.8453
  12   2.0000     -33.777280      -919.1265
  13   2.0000     -33.777038      -919.1199
  14   2.0000     -33.777038      -919.1199
  15   2.0000      -4.346655      -118.2785
  16   2.0000      -4.346636      -118.2780
  17   2.0000      -4.315876      -117.4410
  18   2.0000      -2.862462       -77.8916
  19   2.0000      -2.862301       -77.8872
  20   2.0000      -2.857367       -77.7529
  21   2.0000      -2.857367       -77.7529
  22   2.0000      -2.857364       -77.7528
  23   2.0000      -2.857364       -77.7528
  24   2.0000      -2.832362       -77.0725
  25   2.0000      -2.824851       -76.8681
  26   2.0000      -2.824851       -76.8681
  27   2.0000      -0.452260       -12.3066
  28   2.0000      -0.420585       -11.4447
  29   2.0000      -0.420585       -11.4447
  30   2.0000      -0.416023       -11.3206
  31   2.0000      -0.412063       -11.2128
  32   2.0000      -0.412063       -11.2128
  33   2.0000      -0.406105       -11.0507
  34   2.0000      -0.406096       -11.0504
  35   2.0000      -0.405527       -11.0349
  36   2.0000      -0.405518       -11.0347
  37   2.0000      -0.390243       -10.6190
  38   2.0000      -0.371711       -10.1148
  39   2.0000      -0.371711       -10.1148
  40   2.0000      -0.370827       -10.0907
  41   2.0000      -0.370813       -10.0903
  42   2.0000      -0.364498        -9.9185
  43   0.0000      -0.353104        -9.6085
  44   0.0000      -0.252654        -6.8751
  45   0.0000      -0.211868        -5.7652
  46   0.0000      -0.211868        -5.7652
  47   0.0000      -0.184117        -5.0101

MULLIKEN ATOMIC CHARGES
-----------------------
   0 Cu:   -0.281275
   1 Cu:    0.640659
   2 Cu:    0.640616
Sum of atomic charges:    1.0000000

LOEWDIN ATOMIC CHARGES
----------------------
   0 Cu:    0.120532
   1 Cu:    0.439747
   2 Cu:    0.439721

  Mayer bond orders larger than 0.100000
B(  0-Cu,  1-Cu) :   0.5049 B(  0-Cu,  2-Cu) :   0.5050 B(  1-Cu,  2-Cu) :   0.2952

Dispersion correction           -0.003422801
FINAL SINGLE POINT ENERGY     -4921.409100518648

DIPOLE MOMENT
-------------
                                X             Y             Z
Electronic contribution:     -0.00000       0.00000       0.00016
Nuclear contribution   :      0.00000       0.00000       0.00000
                        -----------------------------------------
Total Dipole Moment    :     -0.00000       0.00000       0.00016
                        -----------------------------------------
Magnitude (a.u.)       :      0.00016
Magnitude (Debye)      :      0.00039

VIBRATIONAL FREQUENCIES
-----------------------

Scaling factor for frequencies =  1.000000000 (already applied!)

   0:         0.00 cm**-1
   1:         0.00 cm**-1
   2:         0.00 cm**-1
   3:         0.00 cm**-1
   4:         0.00 cm**-1
   5:         0.00 cm**-1
   6:      -103.18 cm**-1 ***imaginary mode***
   7:       146.80 cm**-1
   8:       246.48 cm**-1

IR SPECTRUM
-----------

 Mode    freq (cm**-1)   T**2         TX         TY         TZ
-------------------------------------------------------------------
   7:       146.80    0.000032  ( -0.000025  -0.000023  -0.005661)
   8:       246.48   25.848961  (  0.000012   0.000006  -5.084187)

--------------------------
THERMOCHEMISTRY AT 298.15K
--------------------------

Temperature         ... 298.15 K
Pressure            ... 1.00 atm
Total Mass          ... 190.65 AMU
The molecule is recognized as being linear

Throughout the following assumptions are being made:
  (1) The electronic state is orbitally nondegenerate
  (2) There are no thermally accessible electronically excited states
  (3) Hindered rotations indicated by low frequency modes are not
      treated as such but are treated as vibrations and this may
      cause some error
  (4) All equations used are the standard statistical mechanics
      equations for an ideal gas
  (5) All vibrations are strictly harmonic

freq.     146.80  E(vib)   ...       0.41
freq.     246.48  E(vib)   ...       0.31

------------
INNER ENERGY
------------

The inner energy is: U= E(el) + E(ZPE) + E(vib) + E(rot) + E(trans)
    E(el)   - is the total energy from the electronic structure calculation
              = E(kin-el) + E(nuc-el) + E(el-el) + E(nuc-nuc)
    E(ZPE)  - the the zero temperature vibrational energy from the frequency calculation
    E(vib)  - the the finite temperature correction to E(ZPE) due to population
              of excited vibrational states
    E(rot)  - is the rotational thermal energy
    E(trans)- is the translational thermal energy

Summary of contributions to the inner energy U:
Electronic energy                ...  -4921.40910065 Eh
Zero point energy                ...      0.00089596 Eh       0.56 kcal/mol
Thermal vibrational correction   ...      0.00114039 Eh       0.72 kcal/mol
Thermal rotational correction    ...      0.00094418 Eh       0.59 kcal/mol
Thermal translational correction ...      0.00141627 Eh       0.89 kcal/mol
-----------------------------------------------------------------------
Total thermal energy                  -4921.40470384 Eh

Summary of corrections to the electronic energy:
(perhaps to be used in another calculation)
Total thermal correction                  0.00350084 Eh       2.20 kcal/mol
Non-thermal (ZPE) correction              0.00089596 Eh       0.56 kcal/mol
-----------------------------------------------------------------------
Total correction                          0.00439680 Eh       2.76 kcal/mol

--------
ENTHALPY
--------

The enthalpy is H = U + kB*T
                kB is Boltzmann's constant
Total free energy                 ...  -4921.40470384 Eh
Thermal Enthalpy correction       ...      0.00094421 Eh       0.59 kcal/mol
-----------------------------------------------------------------------
Total Enthalpy                    ...  -4921.40375963 Eh

Note: Rotational entropy computed according to Herzberg
Infrared and Raman Spectra, Chapter V,1, Van Nostrand Reinhold, 1945
Point Group:  Dinfh, Symmetry Number:   2
Rotational constants in cm-1:     0.000000     0.024422     0.024422

Vibrational entropy computed according to the QRRHO of S. Grimme
Chem.Eur.J. 2012 18 9955

-------
ENTROPY
-------

The entropy contributions are T*S = T*(S(el)+S(vib)+S(rot)+S(trans))
     S(el)   - electronic entropy
     S(vib)  - vibrational entropy
     S(rot)  - rotational entropy
     S(trans)- translational entropy
The entropies will be listed as mutliplied by the temperature to get
units of energy

Electronic entropy                ...      0.00000000 Eh      0.00 kcal/mol
Vibrational entropy               ...      0.00210574 Eh      1.32 kcal/mol
Rotational entropy                ...      0.00883087 Eh      5.54 kcal/mol
Translational entropy             ...      0.01978512 Eh     12.42 kcal/mol
-----------------------------------------------------------------------
Final entropy term                ...      0.03072173 Eh     19.28 kcal/mol

In case the symmetry of your molecule has not been determined correctly
or in case you have a reason to use a different symmetry number we print
out the resulting rotational entropy values for sn=1,12 :
 --------------------------------------------------------
|  sn= 1 | S(rot)=      -0.00131285 Eh     -0.82 kcal/mol|
|  sn= 2 | S(rot)=      -0.00196731 Eh     -1.23 kcal/mol|
|  sn= 3 | S(rot)=      -0.00235014 Eh     -1.47 kcal/mol|
|  sn= 4 | S(rot)=      -0.00262177 Eh     -1.65 kcal/mol|
|  sn= 5 | S(rot)=      -0.00283245 Eh     -1.78 kcal/mol|
|  sn= 6 | S(rot)=      -0.00300460 Eh     -1.89 kcal/mol|
|  sn= 7 | S(rot)=      -0.00315014 Eh     -1.98 kcal/mol|
|  sn= 8 | S(rot)=      -0.00327622 Eh     -2.06 kcal/mol|
|  sn= 9 | S(rot)=      -0.00338743 Eh     -2.13 kcal/mol|
|  sn=10 | S(rot)=      -0.00348691 Eh     -2.19 kcal/mol|
|  sn=11 | S(rot)=      -0.00357690 Eh     -2.24 kcal/mol|
|  sn=12 | S(rot)=      -0.00365905 Eh     -2.30 kcal/mol|
 --------------------------------------------------------

-------------------
GIBBS FREE ENERGY
-------------------

The Gibbs free energy is G = H - T*S

Total enthalpy                    ...  -4921.40375963 Eh
Total entropy correction          ...     -0.03072173 Eh    -19.28 kcal/mol
-----------------------------------------------------------------------
Final Gibbs free energy         ...  -4921.43448136 Eh

For completeness - the Gibbs free energy minus the electronic energy
G-E(el)                           ...     -0.02538072 Eh    -15.93 kcal/mol

                             ****ORCA TERMINATED NORMALLY****
TOTAL RUN TIME: 0 days 0 hours 0 minutes 43 seconds 932 msec
