                         Program Version 4.2.0 -  RELEASE  -
|  1> #
|  2> # Cu03N0_LIN TPSS-D3BJ/Def2-TZVPPD
|  3> #
|  4> ! tpss d3bj def2-tzvppd def2/j grid4 nofinalgrid opt xyzfile numfreq
|  5>
|  6> *xyz 0 2
|  7> Cu       0.000000    0.000000    0.000000
|  8> Cu       0.000000    0.000000    2.291099
|  9> Cu       0.000000    0.000000   -2.291099
| 10> *
| 11>
| 12> %maxcore 5000
| 13>
| 14> %pal
| 15> nprocs = 24
| 16> end
| 17>
| 18>
| 19>                          ****END OF INPUT****
 Total Charge           Charge          ....    0
 Multiplicity           Mult            ....    2
 Number of Electrons    NEL             ....   87
Dispersion correction           -0.003463316
FINAL SINGLE POINT ENERGY     -4921.675032868899
Dispersion correction            ... done
Dispersion correction           -0.003463045
FINAL SINGLE POINT ENERGY     -4921.675034176315
Dispersion correction            ... done
Dispersion correction           -0.003454017
FINAL SINGLE POINT ENERGY     -4921.675060916687
Dispersion correction            ... done
                    ***********************HURRAY********************

CARTESIAN COORDINATES (ANGSTROEM)
---------------------------------
  Cu     0.000000    0.000000    0.000000
  Cu    -0.000000   -0.000000    2.300156
  Cu    -0.000000   -0.000000   -2.300156

 Multiplicity           Mult            ....    2
 Number of Electrons    NEL             ....   87
 Basis Dimension        Dim             ....  201

ORBITAL ENERGIES
----------------
                 SPIN UP ORBITALS
  NO   OCC          E(Eh)            E(eV)
   0   1.0000    -322.092158     -8764.5732
   1   1.0000    -322.092155     -8764.5731
   2   1.0000    -322.077914     -8764.1856
   3   1.0000     -38.381435     -1044.4119
   4   1.0000     -38.381412     -1044.4113
   5   1.0000     -38.371392     -1044.1387
   6   1.0000     -33.600805      -914.3244
   7   1.0000     -33.600802      -914.3243
   8   1.0000     -33.600361      -914.3123
   9   1.0000     -33.600361      -914.3123
  10   1.0000     -33.600358      -914.3122
  11   1.0000     -33.600358      -914.3122
  12   1.0000     -33.590512      -914.0443
  13   1.0000     -33.590063      -914.0321
  14   1.0000     -33.590063      -914.0321
  15   1.0000      -4.139901      -112.6524
  16   1.0000      -4.139885      -112.6520
  17   1.0000      -4.128016      -112.3290
  18   1.0000      -2.656800       -72.2952
  19   1.0000      -2.656329       -72.2824
  20   1.0000      -2.649494       -72.0964
  21   1.0000      -2.649494       -72.0964
  22   1.0000      -2.649490       -72.0963
  23   1.0000      -2.649490       -72.0963
  24   1.0000      -2.642821       -71.9148
  25   1.0000      -2.637359       -71.7662
  26   1.0000      -2.637359       -71.7662
  27   1.0000      -0.258860        -7.0439
  28   1.0000      -0.221152        -6.0179
  29   1.0000      -0.221152        -6.0179
  30   1.0000      -0.211596        -5.7578
  31   1.0000      -0.207215        -5.6386
  32   1.0000      -0.207215        -5.6386
  33   1.0000      -0.203013        -5.5243
  34   1.0000      -0.201821        -5.4918
  35   1.0000      -0.201813        -5.4916
  36   1.0000      -0.200323        -5.4511
  37   1.0000      -0.200315        -5.4508
  38   1.0000      -0.182585        -4.9684
  39   1.0000      -0.182573        -4.9681
  40   1.0000      -0.180186        -4.9031
  41   1.0000      -0.176648        -4.8068
  42   1.0000      -0.176648        -4.8068
  43   1.0000      -0.174083        -4.7370
  44   0.0000      -0.088883        -2.4186
  45   0.0000      -0.054133        -1.4730
  46   0.0000      -0.054133        -1.4730
  47   0.0000      -0.026953        -0.7334
  48   0.0000      -0.014078        -0.3831

                 SPIN DOWN ORBITALS
  NO   OCC          E(Eh)            E(eV)
   0   1.0000    -322.091632     -8764.5589
   1   1.0000    -322.091629     -8764.5588
   2   1.0000    -322.077866     -8764.1843
   3   1.0000     -38.381861     -1044.4235
   4   1.0000     -38.381838     -1044.4229
   5   1.0000     -38.371733     -1044.1479
   6   1.0000     -33.601247      -914.3364
   7   1.0000     -33.601244      -914.3363
   8   1.0000     -33.600523      -914.3167
   9   1.0000     -33.600523      -914.3167
  10   1.0000     -33.600519      -914.3166
  11   1.0000     -33.600519      -914.3166
  12   1.0000     -33.590728      -914.0502
  13   1.0000     -33.590286      -914.0382
  14   1.0000     -33.590286      -914.0382
  15   1.0000      -4.140384      -112.6656
  16   1.0000      -4.140371      -112.6652
  17   1.0000      -4.128691      -112.3474
  18   1.0000      -2.655205       -72.2518
  19   1.0000      -2.654644       -72.2365
  20   1.0000      -2.650652       -72.1279
  21   1.0000      -2.650652       -72.1279
  22   1.0000      -2.650648       -72.1278
  23   1.0000      -2.650648       -72.1278
  24   1.0000      -2.643411       -71.9309
  25   1.0000      -2.638016       -71.7841
  26   1.0000      -2.638016       -71.7841
  27   1.0000      -0.252245        -6.8639
  28   1.0000      -0.218643        -5.9496
  29   1.0000      -0.218643        -5.9496
  30   1.0000      -0.207614        -5.6495
  31   1.0000      -0.204004        -5.5512
  32   1.0000      -0.204004        -5.5512
  33   1.0000      -0.198138        -5.3916
  34   1.0000      -0.198130        -5.3914
  35   1.0000      -0.196367        -5.3434
  36   1.0000      -0.196359        -5.3432
  37   1.0000      -0.190312        -5.1786
  38   1.0000      -0.182999        -4.9797
  39   1.0000      -0.182987        -4.9793
  40   1.0000      -0.175975        -4.7885
  41   1.0000      -0.175975        -4.7885
  42   1.0000      -0.173176        -4.7124
  43   0.0000      -0.156246        -4.2517
  44   0.0000      -0.074348        -2.0231
  45   0.0000      -0.042428        -1.1545
  46   0.0000      -0.042428        -1.1545
  47   0.0000      -0.013645        -0.3713

MULLIKEN ATOMIC CHARGES AND SPIN POPULATIONS
--------------------------------------------
   0 Cu:   -0.338543   -0.120250
   1 Cu:    0.169269    0.560125
   2 Cu:    0.169274    0.560125
Sum of atomic charges         :   -0.0000000

LOEWDIN ATOMIC CHARGES AND SPIN POPULATIONS
-------------------------------------------
   0 Cu:   -0.252898    0.348439
   1 Cu:    0.126449    0.325781
   2 Cu:    0.126449    0.325780

  Mayer bond orders larger than 0.100000
B(  0-Cu,  1-Cu) :   0.4392 B(  0-Cu,  2-Cu) :   0.4392 B(  1-Cu,  2-Cu) :   0.2867

Dispersion correction           -0.003453731
FINAL SINGLE POINT ENERGY     -4921.675061177385

DIPOLE MOMENT
-------------
                                X             Y             Z
Electronic contribution:     -0.00000      -0.00000       0.00000
Nuclear contribution   :      0.00000      -0.00000       0.00000
                        -----------------------------------------
Total Dipole Moment    :     -0.00000      -0.00000       0.00000
                        -----------------------------------------
Magnitude (a.u.)       :      0.00000
Magnitude (Debye)      :      0.00001

VIBRATIONAL FREQUENCIES
-----------------------

Scaling factor for frequencies =  1.000000000 (already applied!)

   0:         0.00 cm**-1
   1:         0.00 cm**-1
   2:         0.00 cm**-1
   3:         0.00 cm**-1
   4:         0.00 cm**-1
   5:         0.00 cm**-1
   6:       -51.36 cm**-1 ***imaginary mode***
   7:       163.20 cm**-1
   8:       266.25 cm**-1

IR SPECTRUM
-----------

 Mode    freq (cm**-1)   T**2         TX         TY         TZ
-------------------------------------------------------------------
   7:       163.20    0.000000  (  0.000011  -0.000005   0.000020)
   8:       266.25    1.549262  (  0.000006  -0.000009  -1.244693)

--------------------------
THERMOCHEMISTRY AT 298.15K
--------------------------

Temperature         ... 298.15 K
Pressure            ... 1.00 atm
Total Mass          ... 190.65 AMU
The molecule is recognized as being linear

Throughout the following assumptions are being made:
  (1) The electronic state is orbitally nondegenerate
      but the spin degeneracy is treated
  (2) There are no thermally accessible electronically excited states
  (3) Hindered rotations indicated by low frequency modes are not
      treated as such but are treated as vibrations and this may
      cause some error
  (4) All equations used are the standard statistical mechanics
      equations for an ideal gas
  (5) All vibrations are strictly harmonic

freq.     163.20  E(vib)   ...       0.39
freq.     266.25  E(vib)   ...       0.29

------------
INNER ENERGY
------------

The inner energy is: U= E(el) + E(ZPE) + E(vib) + E(rot) + E(trans)
    E(el)   - is the total energy from the electronic structure calculation
              = E(kin-el) + E(nuc-el) + E(el-el) + E(nuc-nuc)
    E(ZPE)  - the the zero temperature vibrational energy from the frequency calculation
    E(vib)  - the the finite temperature correction to E(ZPE) due to population
              of excited vibrational states
    E(rot)  - is the rotational thermal energy
    E(trans)- is the translational thermal energy

Summary of contributions to the inner energy U:
Electronic energy                ...  -4921.67506152 Eh
Zero point energy                ...      0.00097837 Eh       0.61 kcal/mol
Thermal vibrational correction   ...      0.00108480 Eh       0.68 kcal/mol
Thermal rotational correction    ...      0.00094418 Eh       0.59 kcal/mol
Thermal translational correction ...      0.00141627 Eh       0.89 kcal/mol
-----------------------------------------------------------------------
Total thermal energy                  -4921.67063790 Eh

Summary of corrections to the electronic energy:
(perhaps to be used in another calculation)
Total thermal correction                  0.00344525 Eh       2.16 kcal/mol
Non-thermal (ZPE) correction              0.00097837 Eh       0.61 kcal/mol
-----------------------------------------------------------------------
Total correction                          0.00442362 Eh       2.78 kcal/mol

--------
ENTHALPY
--------

The enthalpy is H = U + kB*T
                kB is Boltzmann's constant
Total free energy                 ...  -4921.67063790 Eh
Thermal Enthalpy correction       ...      0.00094421 Eh       0.59 kcal/mol
-----------------------------------------------------------------------
Total Enthalpy                    ...  -4921.66969369 Eh

Note: Rotational entropy computed according to Herzberg
Infrared and Raman Spectra, Chapter V,1, Van Nostrand Reinhold, 1945
Point Group:  Dinfh, Symmetry Number:   2
Rotational constants in cm-1:     0.000000     0.025069     0.025069

Vibrational entropy computed according to the QRRHO of S. Grimme
Chem.Eur.J. 2012 18 9955

-------
ENTROPY
-------

The entropy contributions are T*S = T*(S(el)+S(vib)+S(rot)+S(trans))
     S(el)   - electronic entropy
     S(vib)  - vibrational entropy
     S(rot)  - rotational entropy
     S(trans)- translational entropy
The entropies will be listed as mutliplied by the temperature to get
units of energy

Electronic entropy                ...      0.00065446 Eh      0.41 kcal/mol
Vibrational entropy               ...      0.00195762 Eh      1.23 kcal/mol
Rotational entropy                ...      0.00880617 Eh      5.53 kcal/mol
Translational entropy             ...      0.01978512 Eh     12.42 kcal/mol
-----------------------------------------------------------------------
Final entropy term                ...      0.03120337 Eh     19.58 kcal/mol

In case the symmetry of your molecule has not been determined correctly
or in case you have a reason to use a different symmetry number we print
out the resulting rotational entropy values for sn=1,12 :
 --------------------------------------------------------
|  sn= 1 | S(rot)=      -0.00175540 Eh     -1.10 kcal/mol|
|  sn= 2 | S(rot)=      -0.00240986 Eh     -1.51 kcal/mol|
|  sn= 3 | S(rot)=      -0.00279269 Eh     -1.75 kcal/mol|
|  sn= 4 | S(rot)=      -0.00306432 Eh     -1.92 kcal/mol|
|  sn= 5 | S(rot)=      -0.00327500 Eh     -2.06 kcal/mol|
|  sn= 6 | S(rot)=      -0.00344715 Eh     -2.16 kcal/mol|
|  sn= 7 | S(rot)=      -0.00359269 Eh     -2.25 kcal/mol|
|  sn= 8 | S(rot)=      -0.00371877 Eh     -2.33 kcal/mol|
|  sn= 9 | S(rot)=      -0.00382998 Eh     -2.40 kcal/mol|
|  sn=10 | S(rot)=      -0.00392946 Eh     -2.47 kcal/mol|
|  sn=11 | S(rot)=      -0.00401945 Eh     -2.52 kcal/mol|
|  sn=12 | S(rot)=      -0.00410161 Eh     -2.57 kcal/mol|
 --------------------------------------------------------

-------------------
GIBBS FREE ENERGY
-------------------

The Gibbs free energy is G = H - T*S

Total enthalpy                    ...  -4921.66969369 Eh
Total entropy correction          ...     -0.03120337 Eh    -19.58 kcal/mol
-----------------------------------------------------------------------
Final Gibbs free energy         ...  -4921.70089706 Eh

For completeness - the Gibbs free energy minus the electronic energy
G-E(el)                           ...     -0.02583553 Eh    -16.21 kcal/mol

                             ****ORCA TERMINATED NORMALLY****
TOTAL RUN TIME: 0 days 0 hours 0 minutes 53 seconds 547 msec
