                         Program Version 4.2.0 -  RELEASE  -
|  1> #
|  2> # Cu03C1_D3H TPSS-D3BJ/Def2-TZVPPD
|  3> #
|  4> ! tpss d3bj def2-tzvppd def2/j grid4 nofinalgrid opt xyzfile numfreq
|  5>
|  6> *xyz 1 1
|  7> Cu       0.000000    1.349261   -0.000000
|  8> Cu       1.168494   -0.674630    0.000000
|  9> Cu      -1.168494   -0.674630   -0.000000
| 10> *
| 11>
| 12> %maxcore 5000
| 13>
| 14> %pal
| 15> nprocs = 24
| 16> end
| 17>
| 18>
| 19>                          ****END OF INPUT****
 Total Charge           Charge          ....    1
 Multiplicity           Mult            ....    1
 Number of Electrons    NEL             ....   86
Dispersion correction           -0.004124050
FINAL SINGLE POINT ENERGY     -4921.472358682079
Dispersion correction            ... done
Dispersion correction           -0.004124027
FINAL SINGLE POINT ENERGY     -4921.472360038210
Dispersion correction            ... done
Dispersion correction           -0.004123220
FINAL SINGLE POINT ENERGY     -4921.472382729769
Dispersion correction            ... done
                    ***********************HURRAY********************

CARTESIAN COORDINATES (ANGSTROEM)
---------------------------------
  Cu     0.000000    1.354188    0.000000
  Cu     1.171997   -0.677094    0.000000
  Cu    -1.171997   -0.677094    0.000000

 Multiplicity           Mult            ....    1
 Number of Electrons    NEL             ....   86
 Basis Dimension        Dim             ....  201

ORBITAL ENERGIES
----------------

  NO   OCC          E(Eh)            E(eV)
   0   2.0000    -322.302424     -8770.2948
   1   2.0000    -322.302420     -8770.2947
   2   2.0000    -322.302411     -8770.2945
   3   2.0000     -38.591666     -1050.1326
   4   2.0000     -38.591656     -1050.1324
   5   2.0000     -38.591608     -1050.1310
   6   2.0000     -33.810960      -920.0430
   7   2.0000     -33.810950      -920.0427
   8   2.0000     -33.810934      -920.0423
   9   2.0000     -33.810640      -920.0343
  10   2.0000     -33.810637      -920.0342
  11   2.0000     -33.810622      -920.0338
  12   2.0000     -33.810443      -920.0289
  13   2.0000     -33.810439      -920.0288
  14   2.0000     -33.810424      -920.0284
  15   2.0000      -4.351284      -118.4045
  16   2.0000      -4.350820      -118.3918
  17   2.0000      -4.350814      -118.3917
  18   2.0000      -2.867708       -78.0343
  19   2.0000      -2.865279       -77.9682
  20   2.0000      -2.865267       -77.9679
  21   2.0000      -2.863307       -77.9145
  22   2.0000      -2.863304       -77.9144
  23   2.0000      -2.862869       -77.9026
  24   2.0000      -2.859112       -77.8004
  25   2.0000      -2.858704       -77.7893
  26   2.0000      -2.858704       -77.7893
  27   2.0000      -0.475251       -12.9322
  28   2.0000      -0.439455       -11.9582
  29   2.0000      -0.439378       -11.9561
  30   2.0000      -0.435539       -11.8516
  31   2.0000      -0.428753       -11.6670
  32   2.0000      -0.417869       -11.3708
  33   2.0000      -0.417857       -11.3705
  34   2.0000      -0.407670       -11.0933
  35   2.0000      -0.402829       -10.9615
  36   2.0000      -0.402785       -10.9603
  37   2.0000      -0.398572       -10.8457
  38   2.0000      -0.398528       -10.8445
  39   2.0000      -0.397519       -10.8170
  40   2.0000      -0.396860       -10.7991
  41   2.0000      -0.396822       -10.7981
  42   2.0000      -0.387677       -10.5492
  43   0.0000      -0.298334        -8.1181
  44   0.0000      -0.298272        -8.1164
  45   0.0000      -0.231147        -6.2898
  46   0.0000      -0.195647        -5.3238
  47   0.0000      -0.177493        -4.8298

MULLIKEN ATOMIC CHARGES
-----------------------
   0 Cu:    0.333576
   1 Cu:    0.333214
   2 Cu:    0.333210
Sum of atomic charges:    1.0000000

LOEWDIN ATOMIC CHARGES
----------------------
   0 Cu:    0.333452
   1 Cu:    0.333274
   2 Cu:    0.333274

  Mayer bond orders larger than 0.100000
B(  0-Cu,  1-Cu) :   0.6000 B(  0-Cu,  2-Cu) :   0.6000 B(  1-Cu,  2-Cu) :   0.6006

Dispersion correction           -0.004123209
FINAL SINGLE POINT ENERGY     -4921.472382892610

DIPOLE MOMENT
-------------
                                X             Y             Z
Electronic contribution:     -0.00000       0.00058       0.00000
Nuclear contribution   :      0.00000       0.00000       0.00000
                        -----------------------------------------
Total Dipole Moment    :     -0.00000       0.00058       0.00000
                        -----------------------------------------
Magnitude (a.u.)       :      0.00058
Magnitude (Debye)      :      0.00146

VIBRATIONAL FREQUENCIES
-----------------------

Scaling factor for frequencies =  1.000000000 (already applied!)

   0:         0.00 cm**-1
   1:         0.00 cm**-1
   2:         0.00 cm**-1
   3:         0.00 cm**-1
   4:         0.00 cm**-1
   5:         0.00 cm**-1
   6:       182.43 cm**-1
   7:       182.43 cm**-1
   8:       260.11 cm**-1

IR SPECTRUM
-----------

 Mode    freq (cm**-1)   T**2         TX         TY         TZ
-------------------------------------------------------------------
   6:       182.43    1.597957  ( -0.695216   1.055761   0.000003)
   7:       182.43    1.583041  ( -1.043859  -0.702424  -0.000007)
   8:       260.11    0.000000  (  0.000344  -0.000263  -0.000002)

--------------------------
THERMOCHEMISTRY AT 298.15K
--------------------------

Temperature         ... 298.15 K
Pressure            ... 1.00 atm
Total Mass          ... 190.65 AMU

Throughout the following assumptions are being made:
  (1) The electronic state is orbitally nondegenerate
  (2) There are no thermally accessible electronically excited states
  (3) Hindered rotations indicated by low frequency modes are not
      treated as such but are treated as vibrations and this may
      cause some error
  (4) All equations used are the standard statistical mechanics
      equations for an ideal gas
  (5) All vibrations are strictly harmonic

freq.     182.43  E(vib)   ...       0.37
freq.     182.43  E(vib)   ...       0.37
freq.     260.11  E(vib)   ...       0.30

------------
INNER ENERGY
------------

The inner energy is: U= E(el) + E(ZPE) + E(vib) + E(rot) + E(trans)
    E(el)   - is the total energy from the electronic structure calculation
              = E(kin-el) + E(nuc-el) + E(el-el) + E(nuc-nuc)
    E(ZPE)  - the the zero temperature vibrational energy from the frequency calculation
    E(vib)  - the the finite temperature correction to E(ZPE) due to population
              of excited vibrational states
    E(rot)  - is the rotational thermal energy
    E(trans)- is the translational thermal energy

Summary of contributions to the inner energy U:
Electronic energy                ...  -4921.47238336 Eh
Zero point energy                ...      0.00142379 Eh       0.89 kcal/mol
Thermal vibrational correction   ...      0.00165008 Eh       1.04 kcal/mol
Thermal rotational correction    ...      0.00141627 Eh       0.89 kcal/mol
Thermal translational correction ...      0.00141627 Eh       0.89 kcal/mol
-----------------------------------------------------------------------
Total thermal energy                  -4921.46647696 Eh

Summary of corrections to the electronic energy:
(perhaps to be used in another calculation)
Total thermal correction                  0.00448262 Eh       2.81 kcal/mol
Non-thermal (ZPE) correction              0.00142379 Eh       0.89 kcal/mol
-----------------------------------------------------------------------
Total correction                          0.00590641 Eh       3.71 kcal/mol

--------
ENTHALPY
--------

The enthalpy is H = U + kB*T
                kB is Boltzmann's constant
Total free energy                 ...  -4921.46647696 Eh
Thermal Enthalpy correction       ...      0.00094421 Eh       0.59 kcal/mol
-----------------------------------------------------------------------
Total Enthalpy                    ...  -4921.46553275 Eh

Note: Rotational entropy computed according to Herzberg
Infrared and Raman Spectra, Chapter V,1, Van Nostrand Reinhold, 1945
Point Group:  C2v, Symmetry Number:   2
Rotational constants in cm-1:     0.096560     0.096434     0.048249

Vibrational entropy computed according to the QRRHO of S. Grimme
Chem.Eur.J. 2012 18 9955

-------
ENTROPY
-------

The entropy contributions are T*S = T*(S(el)+S(vib)+S(rot)+S(trans))
     S(el)   - electronic entropy
     S(vib)  - vibrational entropy
     S(rot)  - rotational entropy
     S(trans)- translational entropy
The entropies will be listed as mutliplied by the temperature to get
units of energy

Electronic entropy                ...      0.00000000 Eh      0.00 kcal/mol
Vibrational entropy               ...      0.00297700 Eh      1.87 kcal/mol
Rotational entropy                ...      0.01249516 Eh      7.84 kcal/mol
Translational entropy             ...      0.01978512 Eh     12.42 kcal/mol
-----------------------------------------------------------------------
Final entropy term                ...      0.03525728 Eh     22.12 kcal/mol

In case the symmetry of your molecule has not been determined correctly
or in case you have a reason to use a different symmetry number we print
out the resulting rotational entropy values for sn=1,12 :
 --------------------------------------------------------
|  sn= 1 | S(rot)=       0.01314962 Eh      8.25 kcal/mol|
|  sn= 2 | S(rot)=       0.01249516 Eh      7.84 kcal/mol|
|  sn= 3 | S(rot)=       0.01211233 Eh      7.60 kcal/mol|
|  sn= 4 | S(rot)=       0.01184071 Eh      7.43 kcal/mol|
|  sn= 5 | S(rot)=       0.01163002 Eh      7.30 kcal/mol|
|  sn= 6 | S(rot)=       0.01145788 Eh      7.19 kcal/mol|
|  sn= 7 | S(rot)=       0.01131233 Eh      7.10 kcal/mol|
|  sn= 8 | S(rot)=       0.01118625 Eh      7.02 kcal/mol|
|  sn= 9 | S(rot)=       0.01107504 Eh      6.95 kcal/mol|
|  sn=10 | S(rot)=       0.01097556 Eh      6.89 kcal/mol|
|  sn=11 | S(rot)=       0.01088557 Eh      6.83 kcal/mol|
|  sn=12 | S(rot)=       0.01080342 Eh      6.78 kcal/mol|
 --------------------------------------------------------

-------------------
GIBBS FREE ENERGY
-------------------

The Gibbs free energy is G = H - T*S

Total enthalpy                    ...  -4921.46553275 Eh
Total entropy correction          ...     -0.03525728 Eh    -22.12 kcal/mol
-----------------------------------------------------------------------
Final Gibbs free energy         ...  -4921.50079003 Eh

For completeness - the Gibbs free energy minus the electronic energy
G-E(el)                           ...     -0.02840667 Eh    -17.83 kcal/mol

                             ****ORCA TERMINATED NORMALLY****
TOTAL RUN TIME: 0 days 0 hours 0 minutes 44 seconds 516 msec
