                         Program Version 4.2.0 -  RELEASE  -
|  1> #
|  2> # Cu03N0_D3H TPSS-D3BJ/Def2-TZVPPD
|  3> #
|  4> ! tpss d3bj def2-tzvppd def2/j grid4 nofinalgrid opt xyzfile numfreq
|  5>
|  6> *xyz 0 2
|  7> Cu       0.000000    1.346828   -0.000000
|  8> Cu       1.166387   -0.673414   -0.000000
|  9> Cu      -1.166387   -0.673414   -0.000000
| 10> *
| 11>
| 12> %maxcore 5000
| 13>
| 14> %pal
| 15> nprocs = 24
| 16> end
| 17>
| 18>
| 19>                          ****END OF INPUT****
 Total Charge           Charge          ....    0
 Multiplicity           Mult            ....    2
 Number of Electrons    NEL             ....   87
Dispersion correction           -0.004124500
FINAL SINGLE POINT ENERGY     -4921.686305316081
Dispersion correction            ... done
Dispersion correction           -0.004124456
FINAL SINGLE POINT ENERGY     -4921.686384477441
Dispersion correction            ... done
Dispersion correction           -0.004122382
FINAL SINGLE POINT ENERGY     -4921.687801876071
Dispersion correction            ... done
FINAL SINGLE POINT ENERGY     -4921.687804488349
FINAL SINGLE POINT ENERGY     -4921.687812287950
FINAL SINGLE POINT ENERGY     -4921.687824362695
Dispersion correction            ... done
Dispersion correction           -0.004121294
FINAL SINGLE POINT ENERGY     -4921.687836496750
Dispersion correction            ... done
Dispersion correction           -0.004121154
FINAL SINGLE POINT ENERGY     -4921.687840839294
Dispersion correction            ... done
                    ***********************HURRAY********************

CARTESIAN COORDINATES (ANGSTROEM)
---------------------------------
  Cu     0.000001    1.414979    0.000000
  Cu     1.131386   -0.707488    0.000000
  Cu    -1.131387   -0.707490    0.000000

 Multiplicity           Mult            ....    2
 Number of Electrons    NEL             ....   87
 Basis Dimension        Dim             ....  201

ORBITAL ENERGIES
----------------
                 SPIN UP ORBITALS
  NO   OCC          E(Eh)            E(eV)
   0   1.0000    -322.101115     -8764.8169
   1   1.0000    -322.101110     -8764.8168
   2   1.0000    -322.089950     -8764.5131
   3   1.0000     -38.392675     -1044.7178
   4   1.0000     -38.392642     -1044.7169
   5   1.0000     -38.383810     -1044.4766
   6   1.0000     -33.611853      -914.6250
   7   1.0000     -33.611850      -914.6249
   8   1.0000     -33.611478      -914.6148
   9   1.0000     -33.611474      -914.6147
  10   1.0000     -33.611404      -914.6128
  11   1.0000     -33.611398      -914.6126
  12   1.0000     -33.603010      -914.3844
  13   1.0000     -33.602629      -914.3740
  14   1.0000     -33.602230      -914.3632
  15   1.0000      -4.151078      -112.9566
  16   1.0000      -4.150574      -112.9429
  17   1.0000      -4.139907      -112.6526
  18   1.0000      -2.667872       -72.5965
  19   1.0000      -2.663813       -72.4860
  20   1.0000      -2.662139       -72.4405
  21   1.0000      -2.661451       -72.4218
  22   1.0000      -2.659751       -72.3755
  23   1.0000      -2.659343       -72.3644
  24   1.0000      -2.653837       -72.2146
  25   1.0000      -2.652567       -72.1800
  26   1.0000      -2.646841       -72.0242
  27   1.0000      -0.276737        -7.5304
  28   1.0000      -0.242305        -6.5934
  29   1.0000      -0.234446        -6.3796
  30   1.0000      -0.230044        -6.2598
  31   1.0000      -0.229597        -6.2476
  32   1.0000      -0.218497        -5.9456
  33   1.0000      -0.211872        -5.7653
  34   1.0000      -0.211231        -5.7479
  35   1.0000      -0.199974        -5.4416
  36   1.0000      -0.199060        -5.4167
  37   1.0000      -0.196972        -5.3599
  38   1.0000      -0.196972        -5.3599
  39   1.0000      -0.192320        -5.2333
  40   1.0000      -0.192218        -5.2305
  41   1.0000      -0.191763        -5.2181
  42   1.0000      -0.185329        -5.0430
  43   1.0000      -0.133253        -3.6260
  44   0.0000      -0.123458        -3.3595
  45   0.0000      -0.062917        -1.7121
  46   0.0000      -0.042448        -1.1551
  47   0.0000      -0.019880        -0.5410
  48   0.0000      -0.019485        -0.5302

                 SPIN DOWN ORBITALS
  NO   OCC          E(Eh)            E(eV)
   0   1.0000    -322.100944     -8764.8123
   1   1.0000    -322.100939     -8764.8121
   2   1.0000    -322.089422     -8764.4988
   3   1.0000     -38.392679     -1044.7179
   4   1.0000     -38.392647     -1044.7170
   5   1.0000     -38.383997     -1044.4817
   6   1.0000     -33.611686      -914.6205
   7   1.0000     -33.611683      -914.6204
   8   1.0000     -33.611628      -914.6189
   9   1.0000     -33.611624      -914.6188
  10   1.0000     -33.611259      -914.6088
  11   1.0000     -33.611253      -914.6087
  12   1.0000     -33.602803      -914.3788
  13   1.0000     -33.602636      -914.3742
  14   1.0000     -33.602580      -914.3727
  15   1.0000      -4.150934      -112.9526
  16   1.0000      -4.150430      -112.9389
  17   1.0000      -4.139864      -112.6514
  18   1.0000      -2.667345       -72.5821
  19   1.0000      -2.663532       -72.4784
  20   1.0000      -2.661908       -72.4342
  21   1.0000      -2.660971       -72.4087
  22   1.0000      -2.659845       -72.3781
  23   1.0000      -2.659438       -72.3670
  24   1.0000      -2.653743       -72.2120
  25   1.0000      -2.651731       -72.1573
  26   1.0000      -2.646855       -72.0246
  27   1.0000      -0.272659        -7.4194
  28   1.0000      -0.239666        -6.5216
  29   1.0000      -0.233437        -6.3522
  30   1.0000      -0.226182        -6.1547
  31   1.0000      -0.224013        -6.0957
  32   1.0000      -0.216738        -5.8977
  33   1.0000      -0.209338        -5.6964
  34   1.0000      -0.209313        -5.6957
  35   1.0000      -0.198819        -5.4101
  36   1.0000      -0.197985        -5.3874
  37   1.0000      -0.196319        -5.3421
  38   1.0000      -0.193275        -5.2593
  39   1.0000      -0.189377        -5.1532
  40   1.0000      -0.188197        -5.1211
  41   1.0000      -0.187984        -5.1153
  42   1.0000      -0.181229        -4.9315
  43   0.0000      -0.115669        -3.1475
  44   0.0000      -0.103353        -2.8124
  45   0.0000      -0.054418        -1.4808
  46   0.0000      -0.027799        -0.7565
  47   0.0000      -0.006486        -0.1765

MULLIKEN ATOMIC CHARGES AND SPIN POPULATIONS
--------------------------------------------
   0 Cu:   -0.048799    0.615596
   1 Cu:    0.024404    0.192198
   2 Cu:    0.024395    0.192205
Sum of atomic charges         :   -0.0000000

LOEWDIN ATOMIC CHARGES AND SPIN POPULATIONS
-------------------------------------------
   0 Cu:   -0.012949    0.423533
   1 Cu:    0.006475    0.288233
   2 Cu:    0.006474    0.288235

  Mayer bond orders larger than 0.100000
B(  0-Cu,  1-Cu) :   0.4829 B(  0-Cu,  2-Cu) :   0.4829 B(  1-Cu,  2-Cu) :   0.8542

Dispersion correction           -0.004121188
FINAL SINGLE POINT ENERGY     -4921.687841088236

DIPOLE MOMENT
-------------
                                X             Y             Z
Electronic contribution:      0.00001      -0.33262       0.00000
Nuclear contribution   :      0.00000      -0.00000       0.00000
                        -----------------------------------------
Total Dipole Moment    :      0.00001      -0.33262       0.00000
                        -----------------------------------------
Magnitude (a.u.)       :      0.33262
Magnitude (Debye)      :      0.84546

VIBRATIONAL FREQUENCIES
-----------------------

Scaling factor for frequencies =  1.000000000 (already applied!)

   0:         0.00 cm**-1
   1:         0.00 cm**-1
   2:         0.00 cm**-1
   3:         0.00 cm**-1
   4:         0.00 cm**-1
   5:         0.00 cm**-1
   6:      -104.28 cm**-1 ***imaginary mode***
   7:       189.66 cm**-1
   8:       268.05 cm**-1

IR SPECTRUM
-----------

 Mode    freq (cm**-1)   T**2         TX         TY         TZ
-------------------------------------------------------------------
   7:       189.66    0.100365  ( -0.001395  -0.316801  -0.000003)
   8:       268.05    0.382736  (  0.000616  -0.618656   0.000000)

--------------------------
THERMOCHEMISTRY AT 298.15K
--------------------------

Temperature         ... 298.15 K
Pressure            ... 1.00 atm
Total Mass          ... 190.65 AMU

Throughout the following assumptions are being made:
  (1) The electronic state is orbitally nondegenerate
      but the spin degeneracy is treated
  (2) There are no thermally accessible electronically excited states
  (3) Hindered rotations indicated by low frequency modes are not
      treated as such but are treated as vibrations and this may
      cause some error
  (4) All equations used are the standard statistical mechanics
      equations for an ideal gas
  (5) All vibrations are strictly harmonic

freq.     189.66  E(vib)   ...       0.36
freq.     268.05  E(vib)   ...       0.29

------------
INNER ENERGY
------------

The inner energy is: U= E(el) + E(ZPE) + E(vib) + E(rot) + E(trans)
    E(el)   - is the total energy from the electronic structure calculation
              = E(kin-el) + E(nuc-el) + E(el-el) + E(nuc-nuc)
    E(ZPE)  - the the zero temperature vibrational energy from the frequency calculation
    E(vib)  - the the finite temperature correction to E(ZPE) due to population
              of excited vibrational states
    E(rot)  - is the rotational thermal energy
    E(trans)- is the translational thermal energy

Summary of contributions to the inner energy U:
Electronic energy                ...  -4921.68784111 Eh
Zero point energy                ...      0.00104274 Eh       0.65 kcal/mol
Thermal vibrational correction   ...      0.00103880 Eh       0.65 kcal/mol
Thermal rotational correction    ...      0.00141627 Eh       0.89 kcal/mol
Thermal translational correction ...      0.00141627 Eh       0.89 kcal/mol
-----------------------------------------------------------------------
Total thermal energy                  -4921.68292703 Eh

Summary of corrections to the electronic energy:
(perhaps to be used in another calculation)
Total thermal correction                  0.00387134 Eh       2.43 kcal/mol
Non-thermal (ZPE) correction              0.00104274 Eh       0.65 kcal/mol
-----------------------------------------------------------------------
Total correction                          0.00491408 Eh       3.08 kcal/mol

--------
ENTHALPY
--------

The enthalpy is H = U + kB*T
                kB is Boltzmann's constant
Total free energy                 ...  -4921.68292703 Eh
Thermal Enthalpy correction       ...      0.00094421 Eh       0.59 kcal/mol
-----------------------------------------------------------------------
Total Enthalpy                    ...  -4921.68198282 Eh

Note: Rotational entropy computed according to Herzberg
Infrared and Raman Spectra, Chapter V,1, Van Nostrand Reinhold, 1945
Point Group:  Cs, Symmetry Number:   1
Rotational constants in cm-1:     0.103617     0.088326     0.047681

Vibrational entropy computed according to the QRRHO of S. Grimme
Chem.Eur.J. 2012 18 9955

-------
ENTROPY
-------

The entropy contributions are T*S = T*(S(el)+S(vib)+S(rot)+S(trans))
     S(el)   - electronic entropy
     S(vib)  - vibrational entropy
     S(rot)  - rotational entropy
     S(trans)- translational entropy
The entropies will be listed as mutliplied by the temperature to get
units of energy

Electronic entropy                ...      0.00065446 Eh      0.41 kcal/mol
Vibrational entropy               ...      0.00182650 Eh      1.15 kcal/mol
Rotational entropy                ...      0.01316337 Eh      8.26 kcal/mol
Translational entropy             ...      0.01978512 Eh     12.42 kcal/mol
-----------------------------------------------------------------------
Final entropy term                ...      0.03542944 Eh     22.23 kcal/mol

In case the symmetry of your molecule has not been determined correctly
or in case you have a reason to use a different symmetry number we print
out the resulting rotational entropy values for sn=1,12 :
 --------------------------------------------------------
|  sn= 1 | S(rot)=       0.01316337 Eh      8.26 kcal/mol|
|  sn= 2 | S(rot)=       0.01250891 Eh      7.85 kcal/mol|
|  sn= 3 | S(rot)=       0.01212608 Eh      7.61 kcal/mol|
|  sn= 4 | S(rot)=       0.01185446 Eh      7.44 kcal/mol|
|  sn= 5 | S(rot)=       0.01164377 Eh      7.31 kcal/mol|
|  sn= 6 | S(rot)=       0.01147163 Eh      7.20 kcal/mol|
|  sn= 7 | S(rot)=       0.01132608 Eh      7.11 kcal/mol|
|  sn= 8 | S(rot)=       0.01120000 Eh      7.03 kcal/mol|
|  sn= 9 | S(rot)=       0.01108879 Eh      6.96 kcal/mol|
|  sn=10 | S(rot)=       0.01098931 Eh      6.90 kcal/mol|
|  sn=11 | S(rot)=       0.01089932 Eh      6.84 kcal/mol|
|  sn=12 | S(rot)=       0.01081717 Eh      6.79 kcal/mol|
 --------------------------------------------------------

-------------------
GIBBS FREE ENERGY
-------------------

The Gibbs free energy is G = H - T*S

Total enthalpy                    ...  -4921.68198282 Eh
Total entropy correction          ...     -0.03542944 Eh    -22.23 kcal/mol
-----------------------------------------------------------------------
Final Gibbs free energy         ...  -4921.71741226 Eh

For completeness - the Gibbs free energy minus the electronic energy
G-E(el)                           ...     -0.02957115 Eh    -18.56 kcal/mol

                             ****ORCA TERMINATED NORMALLY****
TOTAL RUN TIME: 0 days 0 hours 1 minutes 46 seconds 51 msec
