                               Psi4 1.4.1 release

  ==> Input File <==

--------------------------------------------------------------------------
memory 120 GB

molecule {
0 1
Au       0.000000    0.000000    0.196853
F        0.000000    0.000000   -1.727931
 }

set dynamic_level 1
set basis Def2-TZVPPD

optimize("MN15-D3BJ")
frequencies("MN15-D3BJ")
--------------------------------------------------------------------------

    Molecular point group: c2v
  Charge       = 0
  Multiplicity = 1
  Basis Set: DEF2-TZVPPD
    Blend: DEF2-TZVPPD
  Basis Set: (DEF2-TZVPPD AUX)
    Blend: DEF2-UNIVERSAL-JKFIT
  @DF-RKS Final Energy:  -235.27620829703383
    Total Energy =                       -235.2762082970338042
    Molecular point group: c2v
  Basis Set: DEF2-TZVPPD
    Blend: DEF2-TZVPPD
  Basis Set: (DEF2-TZVPPD AUX)
    Blend: DEF2-UNIVERSAL-JKFIT
  Basis Set: DEF2-TZVPPD
    Blend: DEF2-TZVPPD
  Basis Set: (DEF2-TZVPPD AUX)
    Blend: DEF2-UNIVERSAL-JKFIT
  @DF-RKS Final Energy:  -235.27627279595720
    Total Energy =                       -235.2762727959571976
  Basis Set: DEF2-TZVPPD
    Blend: DEF2-TZVPPD
  Basis Set: (DEF2-TZVPPD AUX)
    Blend: DEF2-UNIVERSAL-JKFIT
  Basis Set: DEF2-TZVPPD
    Blend: DEF2-TZVPPD
  @DF-RKS Final Energy:  -235.27630061259657
    Total Energy =                       -235.2763006125965433
  **** Optimization is complete! (in 3 steps) ****
    Final optimized geometry and variables:
  @DF-RKS Final Energy:  -235.27630061259663
    Total Energy =                       -235.2763006125966285
  @DF-RKS Final Energy:  -235.27630061259649
    Total Energy =                       -235.2763006125964296
  Basis Set: (DEF2-TZVPPD AUX)
    Blend: DEF2-UNIVERSAL-JKFIT
  Basis Set: DEF2-TZVPPD
    Blend: DEF2-TZVPPD
  Basis Set: (DEF2-TZVPPD AUX)
    Blend: DEF2-UNIVERSAL-JKFIT
  @DF-RKS Final Energy:  -235.27630056519027
    Total Energy =                       -235.2763005651902404
  Basis Set: DEF2-TZVPPD
    Blend: DEF2-TZVPPD
  Basis Set: (DEF2-TZVPPD AUX)
    Blend: DEF2-UNIVERSAL-JKFIT
    Molecular point group: c2v
  Charge       = 0
  Multiplicity = 1
  Basis Set: DEF2-TZVPPD
    Blend: DEF2-TZVPPD
  Basis Set: (DEF2-TZVPPD AUX)
    Blend: DEF2-UNIVERSAL-JKFIT

    Orbital Energies [Eh]
    ---------------------

    Doubly Occupied:

       1A1   -24.231666     2A1    -4.154990     3A1    -2.367476
       1B1    -2.353374     1B2    -2.353374     4A1    -1.136405
       5A1    -0.495879     2B2    -0.458553     2B1    -0.458553
       1A2    -0.378119     6A1    -0.378118     3B2    -0.354563
       3B1    -0.354563     7A1    -0.340209

  @DF-RKS Final Energy:  -235.27630056130880

   => Energetics <=

    Nuclear Repulsion Energy =             47.3896399181253756
    One-Electron Energy =                -472.4082454788238010
    Two-Electron Energy =                 203.0475380909376213
    DFT Exchange-Correlation Energy =     -13.3052166615480143
    Empirical Dispersion Energy =          -0.0000164300000000
    VV10 Nonlocal Energy =                  0.0000000000000000
    Total Energy =                       -235.2763005613087728

  Dipole Moment: [D]
     X:     0.0000      Y:     0.0000      Z:     4.1411     Total:     4.1411

    Molecular point group: c2v

    Geometry (in Angstrom), charge = 0, multiplicity = 1:

       Center              X                  Y                   Z               Mass
    ------------   -----------------  -----------------  -----------------  -----------------
         AU           0.000000000000     0.000000000000     0.167976147527   196.966568790000
         F            0.000000000000     0.000000000000    -1.741498226639    18.998403162730

  Basis Set: DEF2-TZVPPD
    Blend: DEF2-TZVPPD
  Basis Set: (DEF2-TZVPPD AUX)
    Blend: DEF2-UNIVERSAL-JKFIT

  -Total Gradient:
     Atom            X                  Y                   Z
    ------   -----------------  -----------------  -----------------
       1        0.000000000000    -0.000000000000     0.000146849656
       2        0.000000000000    -0.000000000000    -0.000069943315

  Vibration                       6
  Freq [cm^-1]                 571.7976
  Irrep                           A1
  Reduced mass [u]             20.6389
  Force const [mDyne/A]         3.9758

  ==> Thermochemistry Components <==

  Entropy, S
    Electronic S            0.000 [cal/(mol K)]        0.000 [J/(mol K)]       0.00000000 [mEh/K] (multiplicity = 1)
    Translational S        42.013 [cal/(mol K)]      175.783 [J/(mol K)]       0.06695206 [mEh/K] (mol. weight = 215.9650 [u], P = 101325.00 [Pa])
    Rotational S           15.211 [cal/(mol K)]       63.641 [J/(mol K)]       0.02423960 [mEh/K] (symmetry no. = 1)
    Vibrational S           0.501 [cal/(mol K)]        2.095 [J/(mol K)]       0.00079806 [mEh/K]
  Total S                  57.724 [cal/(mol K)]      241.519 [J/(mol K)]       0.09198972 [mEh/K]
  Correction S              0.000 [cal/(mol K)]        0.000 [J/(mol K)]       0.00000000 [mEh/K]

  Constant volume heat capacity, Cv
    Electronic Cv           0.000 [cal/(mol K)]        0.000 [J/(mol K)]       0.00000000 [mEh/K]
    Translational Cv        2.981 [cal/(mol K)]       12.472 [J/(mol K)]       0.00475022 [mEh/K]
    Rotational Cv           1.987 [cal/(mol K)]        8.314 [J/(mol K)]       0.00316681 [mEh/K]
    Vibrational Cv          1.092 [cal/(mol K)]        4.570 [J/(mol K)]       0.00174061 [mEh/K]
  Total Cv                  6.060 [cal/(mol K)]       25.356 [J/(mol K)]       0.00965763 [mEh/K]
  Correction Cv             0.000 [cal/(mol K)]        0.000 [J/(mol K)]       0.00000000 [mEh/K]

  Constant pressure heat capacity, Cp
    Electronic Cp           0.000 [cal/(mol K)]        0.000 [J/(mol K)]       0.00000000 [mEh/K]
    Translational Cp        4.968 [cal/(mol K)]       20.786 [J/(mol K)]       0.00791703 [mEh/K]
    Rotational Cp           1.987 [cal/(mol K)]        8.314 [J/(mol K)]       0.00316681 [mEh/K]
    Vibrational Cp          1.092 [cal/(mol K)]        4.570 [J/(mol K)]       0.00174061 [mEh/K]
  Total Cp                  8.047 [cal/(mol K)]       33.671 [J/(mol K)]       0.01282445 [mEh/K]
  Correction Cp             0.000 [cal/(mol K)]        0.000 [J/(mol K)]       0.00000000 [mEh/K]

  ==> Thermochemistry Energy Analysis <==

  Raw electronic energy, E0
  Total E0, Electronic energy at well bottom at 0 [K]                 -235.27630061 [Eh]

  Zero-point energy, ZPE_vib = Sum_i nu_i / 2
    Electronic ZPE          0.000 [kcal/mol]        0.000 [kJ/mol]       0.00000000 [Eh]
    Translational ZPE       0.000 [kcal/mol]        0.000 [kJ/mol]       0.00000000 [Eh]
    Rotational ZPE          0.000 [kcal/mol]        0.000 [kJ/mol]       0.00000000 [Eh]
    Vibrational ZPE         0.817 [kcal/mol]        3.420 [kJ/mol]       0.00130265 [Eh]         285.899 [cm^-1]
  Correction ZPE            0.817 [kcal/mol]        3.420 [kJ/mol]       0.00130265 [Eh]         285.899 [cm^-1]
  Total ZPE, Electronic energy at 0 [K]                               -235.27499796 [Eh]

  Thermal Energy, E (includes ZPE)
    Electronic E            0.000 [kcal/mol]        0.000 [kJ/mol]       0.00000000 [Eh]
    Translational E         0.889 [kcal/mol]        3.718 [kJ/mol]       0.00141628 [Eh]
    Rotational E            0.592 [kcal/mol]        2.479 [kJ/mol]       0.00094418 [Eh]
    Vibrational E           0.928 [kcal/mol]        3.883 [kJ/mol]       0.00147882 [Eh]
  Correction E              2.409 [kcal/mol]       10.080 [kJ/mol]       0.00383928 [Eh]
  Total E, Electronic energy at  298.15 [K]                           -235.27246134 [Eh]

  Enthalpy, H_trans = E_trans + k_B * T
    Electronic H            0.000 [kcal/mol]        0.000 [kJ/mol]       0.00000000 [Eh]
    Translational H         1.481 [kcal/mol]        6.197 [kJ/mol]       0.00236046 [Eh]
    Rotational H            0.592 [kcal/mol]        2.479 [kJ/mol]       0.00094418 [Eh]
    Vibrational H           0.928 [kcal/mol]        3.883 [kJ/mol]       0.00147882 [Eh]
  Correction H              3.002 [kcal/mol]       12.559 [kJ/mol]       0.00478346 [Eh]
  Total H, Enthalpy at  298.15 [K]                                    -235.27151715 [Eh]

  Gibbs free energy, G = H - T * S
    Electronic G            0.000 [kcal/mol]        0.000 [kJ/mol]       0.00000000 [Eh]
    Translational G       -11.045 [kcal/mol]      -46.212 [kJ/mol]      -0.01760129 [Eh]
    Rotational G           -3.943 [kcal/mol]      -16.496 [kJ/mol]      -0.00628285 [Eh]
    Vibrational G           0.779 [kcal/mol]        3.258 [kJ/mol]       0.00124087 [Eh]
  Correction G            -14.209 [kcal/mol]      -59.450 [kJ/mol]      -0.02264327 [Eh]
  Total G, Free enthalpy at  298.15 [K]                               -235.29894389 [Eh]

*** Psi4 exiting successfully. Buy a developer a beer!
