                               Psi4 1.4.1 release

  ==> Input File <==

--------------------------------------------------------------------------
memory 120 GB

molecule {
0 1
Au       0.000000    0.000000    1.239541
Au       0.000000    0.000000   -1.239541
 }

set dynamic_level 1
set basis Def2-TZVPPD

optimize("MN15-D3BJ")
frequencies("MN15-D3BJ")
--------------------------------------------------------------------------

    Molecular point group: d2h
  Charge       = 0
  Multiplicity = 1
  Basis Set: DEF2-TZVPPD
    Blend: DEF2-TZVPPD
  Basis Set: (DEF2-TZVPPD AUX)
    Blend: DEF2-UNIVERSAL-JKFIT
  @DF-RKS Final Energy:  -271.04423822818035
    Total Energy =                       -271.0442382281803475
    Molecular point group: d2h
  Basis Set: DEF2-TZVPPD
    Blend: DEF2-TZVPPD
  Basis Set: (DEF2-TZVPPD AUX)
    Blend: DEF2-UNIVERSAL-JKFIT
  Basis Set: DEF2-TZVPPD
    Blend: DEF2-TZVPPD
  Basis Set: (DEF2-TZVPPD AUX)
    Blend: DEF2-UNIVERSAL-JKFIT
  @DF-RKS Final Energy:  -271.04426514579166
    Total Energy =                       -271.0442651457915986
  Basis Set: DEF2-TZVPPD
    Blend: DEF2-TZVPPD
  Basis Set: (DEF2-TZVPPD AUX)
    Blend: DEF2-UNIVERSAL-JKFIT
  Basis Set: DEF2-TZVPPD
    Blend: DEF2-TZVPPD
  @DF-RKS Final Energy:  -271.04426959838895
    Total Energy =                       -271.0442695983888939
  @DF-RKS Final Energy:  -271.04426950884636
    Total Energy =                       -271.0442695088462983
  **** Optimization is complete! (in 4 steps) ****
    Final optimized geometry and variables:
  @DF-RKS Final Energy:  -271.04426950884653
    Total Energy =                       -271.0442695088464689
  @DF-RKS Final Energy:  -271.04426950884653
    Total Energy =                       -271.0442695088465257
  Basis Set: (DEF2-TZVPPD AUX)
    Blend: DEF2-UNIVERSAL-JKFIT
  Basis Set: DEF2-TZVPPD
    Blend: DEF2-TZVPPD
  Basis Set: (DEF2-TZVPPD AUX)
    Blend: DEF2-UNIVERSAL-JKFIT
  @DF-RKS Final Energy:  -271.04426942082677
    Total Energy =                       -271.0442694208267653
  Basis Set: DEF2-TZVPPD
    Blend: DEF2-TZVPPD
  Basis Set: (DEF2-TZVPPD AUX)
    Blend: DEF2-UNIVERSAL-JKFIT
    Molecular point group: d2h
  Charge       = 0
  Multiplicity = 1
  Basis Set: DEF2-TZVPPD
    Blend: DEF2-TZVPPD
  Basis Set: (DEF2-TZVPPD AUX)
    Blend: DEF2-UNIVERSAL-JKFIT

    Orbital Energies [Eh]
    ---------------------

    Doubly Occupied:

       1Ag    -4.105574     1B1u   -4.104883     2Ag    -2.320720
       2B1u   -2.306833     1B2u   -2.306178     1B3u   -2.306178
       1B3g   -2.304954     1B2g   -2.304954     3Ag    -0.411441
       2B3u   -0.381389     2B2u   -0.381388     4Ag    -0.343401
       1B1g   -0.343391     3B1u   -0.329330     1Au    -0.329319
       2B2g   -0.314590     2B3g   -0.314590     4B1u   -0.309781
       5Ag    -0.296466

  @DF-RKS Final Energy:  -271.04426956462595

   => Energetics <=

    Nuclear Repulsion Energy =             76.7082369636963080
    One-Electron Energy =                -629.9625158301957981
    Two-Electron Energy =                 296.9303784860861128
    DFT Exchange-Correlation Energy =     -14.7203240742125967
    Empirical Dispersion Energy =          -0.0000451100000000
    VV10 Nonlocal Energy =                  0.0000000000000000
    Total Energy =                       -271.0442695646259494

  Dipole Moment: [D]
     X:     0.0000      Y:     0.0000      Z:     0.0000     Total:     0.0000

    Molecular point group: d2h

    Geometry (in Angstrom), charge = 0, multiplicity = 1:

       Center              X                  Y                   Z               Mass
    ------------   -----------------  -----------------  -----------------  -----------------
         AU           0.000000000000     0.000000000000     1.245192045949   196.966568790000
         AU           0.000000000000     0.000000000000    -1.245192045949   196.966568790000

  Basis Set: DEF2-TZVPPD
    Blend: DEF2-TZVPPD
  Basis Set: (DEF2-TZVPPD AUX)
    Blend: DEF2-UNIVERSAL-JKFIT

  -Total Gradient:
     Atom            X                  Y                   Z
    ------   -----------------  -----------------  -----------------
       1       -0.000000000000     0.000000000000    -0.000129850125
       2       -0.000000000000     0.000000000000     0.000129850125

  Vibration                       6
  Freq [cm^-1]                 185.0514
  Irrep                           Ag
  Reduced mass [u]             196.9666
  Force const [mDyne/A]         3.9740

  ==> Thermochemistry Components <==

  Entropy, S
    Electronic S            0.000 [cal/(mol K)]        0.000 [J/(mol K)]       0.00000000 [mEh/K] (multiplicity = 1)
    Translational S        43.805 [cal/(mol K)]      183.279 [J/(mol K)]       0.06980725 [mEh/K] (mol. weight = 393.9331 [u], P = 101325.00 [Pa])
    Rotational S           18.343 [cal/(mol K)]       76.746 [J/(mol K)]       0.02923092 [mEh/K] (symmetry no. = 2)
    Vibrational S           2.277 [cal/(mol K)]        9.526 [J/(mol K)]       0.00362837 [mEh/K]
  Total S                  64.424 [cal/(mol K)]      269.551 [J/(mol K)]       0.10266654 [mEh/K]
  Correction S              0.000 [cal/(mol K)]        0.000 [J/(mol K)]       0.00000000 [mEh/K]

  Constant volume heat capacity, Cv
    Electronic Cv           0.000 [cal/(mol K)]        0.000 [J/(mol K)]       0.00000000 [mEh/K]
    Translational Cv        2.981 [cal/(mol K)]       12.472 [J/(mol K)]       0.00475022 [mEh/K]
    Rotational Cv           1.987 [cal/(mol K)]        8.314 [J/(mol K)]       0.00316681 [mEh/K]
    Vibrational Cv          1.860 [cal/(mol K)]        7.783 [J/(mol K)]       0.00296450 [mEh/K]
  Total Cv                  6.828 [cal/(mol K)]       28.569 [J/(mol K)]       0.01088152 [mEh/K]
  Correction Cv             0.000 [cal/(mol K)]        0.000 [J/(mol K)]       0.00000000 [mEh/K]

  Constant pressure heat capacity, Cp
    Electronic Cp           0.000 [cal/(mol K)]        0.000 [J/(mol K)]       0.00000000 [mEh/K]
    Translational Cp        4.968 [cal/(mol K)]       20.786 [J/(mol K)]       0.00791703 [mEh/K]
    Rotational Cp           1.987 [cal/(mol K)]        8.314 [J/(mol K)]       0.00316681 [mEh/K]
    Vibrational Cp          1.860 [cal/(mol K)]        7.783 [J/(mol K)]       0.00296450 [mEh/K]
  Total Cp                  8.815 [cal/(mol K)]       36.884 [J/(mol K)]       0.01404833 [mEh/K]
  Correction Cp             0.000 [cal/(mol K)]        0.000 [J/(mol K)]       0.00000000 [mEh/K]

  ==> Thermochemistry Energy Analysis <==

  Raw electronic energy, E0
  Total E0, Electronic energy at well bottom at 0 [K]                 -271.04426951 [Eh]

  Zero-point energy, ZPE_vib = Sum_i nu_i / 2
    Electronic ZPE          0.000 [kcal/mol]        0.000 [kJ/mol]       0.00000000 [Eh]
    Translational ZPE       0.000 [kcal/mol]        0.000 [kJ/mol]       0.00000000 [Eh]
    Rotational ZPE          0.000 [kcal/mol]        0.000 [kJ/mol]       0.00000000 [Eh]
    Vibrational ZPE         0.265 [kcal/mol]        1.107 [kJ/mol]       0.00042158 [Eh]          92.526 [cm^-1]
  Correction ZPE            0.265 [kcal/mol]        1.107 [kJ/mol]       0.00042158 [Eh]          92.526 [cm^-1]
  Total ZPE, Electronic energy at 0 [K]                               -271.04384793 [Eh]

  Thermal Energy, E (includes ZPE)
    Electronic E            0.000 [kcal/mol]        0.000 [kJ/mol]       0.00000000 [Eh]
    Translational E         0.889 [kcal/mol]        3.718 [kJ/mol]       0.00141628 [Eh]
    Rotational E            0.592 [kcal/mol]        2.479 [kJ/mol]       0.00094418 [Eh]
    Vibrational E           0.631 [kcal/mol]        2.642 [kJ/mol]       0.00100611 [Eh]
  Correction E              2.113 [kcal/mol]        8.839 [kJ/mol]       0.00336657 [Eh]
  Total E, Electronic energy at  298.15 [K]                           -271.04090294 [Eh]

  Enthalpy, H_trans = E_trans + k_B * T
    Electronic H            0.000 [kcal/mol]        0.000 [kJ/mol]       0.00000000 [Eh]
    Translational H         1.481 [kcal/mol]        6.197 [kJ/mol]       0.00236046 [Eh]
    Rotational H            0.592 [kcal/mol]        2.479 [kJ/mol]       0.00094418 [Eh]
    Vibrational H           0.631 [kcal/mol]        2.642 [kJ/mol]       0.00100611 [Eh]
  Correction H              2.705 [kcal/mol]       11.318 [kJ/mol]       0.00431076 [Eh]
  Total H, Enthalpy at  298.15 [K]                                    -271.03995875 [Eh]

  Gibbs free energy, G = H - T * S
    Electronic G            0.000 [kcal/mol]        0.000 [kJ/mol]       0.00000000 [Eh]
    Translational G       -11.579 [kcal/mol]      -48.447 [kJ/mol]      -0.01845257 [Eh]
    Rotational G           -4.876 [kcal/mol]      -20.403 [kJ/mol]      -0.00777102 [Eh]
    Vibrational G          -0.047 [kcal/mol]       -0.199 [kJ/mol]      -0.00007569 [Eh]
  Correction G            -16.503 [kcal/mol]      -69.049 [kJ/mol]      -0.02629927 [Eh]
  Total G, Free enthalpy at  298.15 [K]                               -271.07056878 [Eh]

*** Psi4 exiting successfully. Buy a developer a beer!
