                               Psi4 1.4.1 release

  ==> Input File <==

--------------------------------------------------------------------------
memory 120 GB

molecule {
0 2
Au       0.000000    1.515176   -0.000000
Au       1.312181   -0.757588    0.000000
Au      -1.312181   -0.757588   -0.000000
 }

set reference uks
set dynamic_level 1
set basis Def2-TZVPPD

optimize("MN15-D3BJ")
frequencies("MN15-D3BJ")
--------------------------------------------------------------------------

    Molecular point group: c2v
  Charge       = 0
  Multiplicity = 2
  Basis Set: DEF2-TZVPPD
    Blend: DEF2-TZVPPD
  Basis Set: (DEF2-TZVPPD AUX)
    Blend: DEF2-UNIVERSAL-JKFIT
  @DF-UKS Final Energy:  -406.57130216801511
    Total Energy =                       -406.5713021680149950
    Molecular point group: c2v
  Basis Set: DEF2-TZVPPD
    Blend: DEF2-TZVPPD
  Basis Set: (DEF2-TZVPPD AUX)
    Blend: DEF2-UNIVERSAL-JKFIT
  Basis Set: DEF2-TZVPPD
    Blend: DEF2-TZVPPD
  Basis Set: (DEF2-TZVPPD AUX)
    Blend: DEF2-UNIVERSAL-JKFIT
  @DF-UKS Final Energy:  -406.57292198607922
    Total Energy =                       -406.5729219860792227
  Basis Set: DEF2-TZVPPD
    Blend: DEF2-TZVPPD
  Basis Set: (DEF2-TZVPPD AUX)
    Blend: DEF2-UNIVERSAL-JKFIT
  Basis Set: DEF2-TZVPPD
    Blend: DEF2-TZVPPD
  @DF-UKS Final Energy:  -406.57302468960836
    Total Energy =                       -406.5730246896084168
  @DF-UKS Final Energy:  -406.57303795862731
    Total Energy =                       -406.5730379586272534
  @DF-UKS Final Energy:  -406.57303832603748
    Total Energy =                       -406.5730383260373628
  **** Optimization is complete! (in 5 steps) ****
    Final optimized geometry and variables:
  @DF-UKS Final Energy:  -406.57303832603861
    Total Energy =                       -406.5730383260386134
  @DF-UKS Final Energy:  -406.57303832603816
    Total Energy =                       -406.5730383260381586
  @DF-UKS Final Energy:  -406.57303834175718
    Total Energy =                       -406.5730383417571261
  @DF-UKS Final Energy:  -406.57303829767989
    Total Energy =                       -406.5730382976799433
  @DF-UKS Final Energy:  -406.57303829563443
    Total Energy =                       -406.5730382956344897
  Basis Set: (DEF2-TZVPPD AUX)
    Blend: DEF2-UNIVERSAL-JKFIT
  Basis Set: DEF2-TZVPPD
    Blend: DEF2-TZVPPD
  Basis Set: (DEF2-TZVPPD AUX)
    Blend: DEF2-UNIVERSAL-JKFIT
  @DF-UKS Final Energy:  -406.57303832859679
    Total Energy =                       -406.5730383285967946
  Basis Set: DEF2-TZVPPD
    Blend: DEF2-TZVPPD
  Basis Set: (DEF2-TZVPPD AUX)
    Blend: DEF2-UNIVERSAL-JKFIT
    Molecular point group: cs
  Charge       = 0
  Multiplicity = 2
  Basis Set: DEF2-TZVPPD
    Blend: DEF2-TZVPPD
  Basis Set: (DEF2-TZVPPD AUX)
    Blend: DEF2-UNIVERSAL-JKFIT

    Orbital Energies [Eh]
    ---------------------

    Alpha Occupied:

       1Ap    -4.126762     2Ap    -4.126242     3Ap    -4.104614
       4Ap    -2.339328     5Ap    -2.330966     6Ap    -2.329981
       1App   -2.326777     2App   -2.325803     7Ap    -2.325548
       8Ap    -2.311855     9Ap    -2.306429     3App   -2.301781
      10Ap    -0.444640    11Ap    -0.418491     4App   -0.403685
      12Ap    -0.395637    13Ap    -0.381559     5App   -0.376483
       6App   -0.363831    14Ap    -0.343207    15Ap    -0.341938
      16Ap    -0.338417     7App   -0.334817    17Ap    -0.332768
       8App   -0.326934     9App   -0.326441    18Ap    -0.323658
      19Ap    -0.303799    20Ap    -0.218255

    Alpha Virtual:

      21Ap    -0.130220    10App   -0.030465    22Ap    -0.012192
      23Ap     0.011126    24Ap     0.015498    11App    0.058104
      12App    0.068460    25Ap     0.098927    26Ap     0.106345
      27Ap     0.130635    28Ap     0.187444    29Ap     0.197164
      13App    0.206070    30Ap     0.217444    31Ap     0.224022
      14App    0.262764    15App    0.263078    32Ap     0.276048
      33Ap     0.277255    34Ap     0.314439    35Ap     0.328820
      16App    0.340028    17App    0.340214    36Ap     0.341174
      37Ap     0.357045    18App    0.368871    38Ap     0.419280
      39Ap     0.419600    19App    0.452729    20App    0.489478
      21App    0.491093    40Ap     0.498660    41Ap     0.504482
      42Ap     0.516006    43Ap     0.593409    44Ap     0.593627
      45Ap     0.611398    46Ap     0.835561    47Ap     0.903945
      22App    0.940795    48Ap     0.943100    49Ap     0.948263
      23App    0.992693    24App    1.027896    25App    1.075357
      50Ap     1.079159    26App    1.098199    27App    1.099708
      51Ap     1.100746    28App    1.104573    52Ap     1.123928
      53Ap     1.139985    54Ap     1.154677    29App    1.160555
      30App    1.170384    55Ap     1.215850    56Ap     1.228431
      57Ap     1.237977    31App    1.310715    58Ap     1.325779
      59Ap     1.336583    32App    1.350178    60Ap     1.351788
      61Ap     1.365262    33App    1.371141    62Ap     1.394787
      63Ap     1.448898    34App    1.471583    64Ap     1.476256
      35App    1.484792    36App    1.496064    65Ap     1.518245
      66Ap     1.520762    67Ap     1.538129    68Ap     1.587715
      37App    1.595262    69Ap     1.622642    38App    1.638743
      39App    1.673578    70Ap     1.798261    71Ap     1.838711
      72Ap     2.017397    73Ap     2.036643    74Ap     2.499864
      75Ap     2.541448    76Ap     3.382850    40App    3.411713
      41App    3.428377    42App    3.439758    43App    3.472388
      77Ap     3.475284    78Ap     3.501557    44App    3.543753
      79Ap     3.548958    45App    3.549895    80Ap     3.554073
      81Ap     3.565634    82Ap     3.602226    46App    3.678523
      83Ap     3.686427    47App    3.698672    48App    3.714649
      84Ap     3.716932    85Ap     3.792489    86Ap     3.813505
      87Ap     3.869678    88Ap     3.994539    89Ap     4.000390
      49App    4.002019    50App    4.006963    90Ap     4.009607
      51App    4.012715    91Ap     4.014065    52App    4.018159
      53App    4.019039    92Ap     4.020722    93Ap     4.020994
      54App    4.021217    55App    4.021901    94Ap     4.022181
      95Ap     4.025763    56App    4.034005    96Ap     4.038171
      57App    4.043042    97Ap     4.043297    58App    4.053132
      98Ap     4.054200    59App    4.056130    60App    4.090700
      99Ap     4.095105   100Ap     4.152546   101Ap     4.187453
     102Ap     4.340178    61App   26.891845   103Ap    27.048499
     104Ap    27.094792    62App   27.215688   105Ap    27.221880
      63App   27.291912   106Ap    28.527339   107Ap    28.887604
     108Ap    29.731387   109Ap    43.508335   110Ap    43.987763
     111Ap    44.034971   112Ap   204.948215   113Ap   205.163402
     114Ap   205.173995

    Beta Occupied:

       1Ap    -4.126241     2Ap    -4.125735     3Ap    -4.101987
       4Ap    -2.339551     5Ap    -2.328376     6Ap    -2.327365
       1App   -2.326642     7Ap    -2.326171     2App   -2.325683
       8Ap    -2.304113     9Ap    -2.304064     3App   -2.300860
      10Ap    -0.440194    11Ap    -0.416755     4App   -0.402806
      12Ap    -0.387358    13Ap    -0.375552     5App   -0.374438
       6App   -0.360782    14Ap    -0.341042    15Ap    -0.336931
      16Ap    -0.336371     7App   -0.335508    17Ap    -0.326616
       8App   -0.322397     9App   -0.318634    18Ap    -0.315759
      19Ap    -0.295063

    Beta Virtual:

      20Ap    -0.122989    21Ap    -0.105214    10App   -0.024001
      22Ap     0.015360    23Ap     0.030860    24Ap     0.035529
      11App    0.072384    12App    0.080144    25Ap     0.113844
      26Ap     0.128338    27Ap     0.148686    28Ap     0.192508
      29Ap     0.205527    13App    0.209921    30Ap     0.229145
      31Ap     0.233181    14App    0.263427    15App    0.269879
      32Ap     0.281294    33Ap     0.290231    34Ap     0.318139
      35Ap     0.331357    16App    0.341380    17App    0.345406
      36Ap     0.349994    37Ap     0.356717    18App    0.371917
      38Ap     0.423625    39Ap     0.425699    19App    0.455733
      20App    0.490444    21App    0.498453    40Ap     0.502054
      41Ap     0.510635    42Ap     0.522123    43Ap     0.595343
      44Ap     0.595654    45Ap     0.614732    46Ap     0.841367
      47Ap     0.902839    22App    0.943538    48Ap     0.950713
      49Ap     0.957794    23App    0.998138    24App    1.036497
      25App    1.080532    50Ap     1.085573    26App    1.100299
      27App    1.100847    51Ap     1.106530    28App    1.114596
      52Ap     1.136599    53Ap     1.144899    54Ap     1.163991
      29App    1.172180    30App    1.173943    55Ap     1.221693
      56Ap     1.232736    57Ap     1.248556    31App    1.320991
      58Ap     1.336528    59Ap     1.340032    60Ap     1.362565
      32App    1.362683    33App    1.372467    61Ap     1.373889
      62Ap     1.399075    63Ap     1.458887    34App    1.472660
      64Ap     1.481692    35App    1.495902    36App    1.505542
      65Ap     1.526406    66Ap     1.533782    67Ap     1.548559
      68Ap     1.596753    37App    1.602300    69Ap     1.628669
      38App    1.648484    39App    1.675380    70Ap     1.804742
      71Ap     1.841540    72Ap     2.020236    73Ap     2.040073
      74Ap     2.504548    75Ap     2.542337    76Ap     3.385475
      40App    3.414311    41App    3.428499    42App    3.443074
      43App    3.474233    77Ap     3.476309    78Ap     3.504348
      44App    3.547871    45App    3.551247    79Ap     3.553886
      80Ap     3.558935    81Ap     3.567932    82Ap     3.602792
      46App    3.684096    83Ap     3.694063    47App    3.705612
      48App    3.714849    84Ap     3.719248    85Ap     3.794163
      86Ap     3.820915    87Ap     3.878121    88Ap     3.993739
      49App    4.000938    89Ap     4.002557    50App    4.007257
      90Ap     4.013861    91Ap     4.014962    51App    4.016052
      52App    4.018628    53App    4.019600    92Ap     4.020375
      93Ap     4.023572    54App    4.024070    94Ap     4.026983
      55App    4.027194    95Ap     4.031914    56App    4.040501
      96Ap     4.042725    57App    4.044728    97Ap     4.044993
      58App    4.059065    98Ap     4.061251    59App    4.061413
      60App    4.089511    99Ap     4.097232   100Ap     4.156089
     101Ap     4.191881   102Ap     4.341305    61App   26.894389
     103Ap    27.050105   104Ap    27.100976    62App   27.221257
     105Ap    27.226457    63App   27.292905   106Ap    28.531865
     107Ap    28.895137   108Ap    29.732348   109Ap    43.514387
     110Ap    43.996610   111Ap    44.037423   112Ap   204.950117
     113Ap   205.166443   114Ap   205.174847

    Final Occupation by Irrep:
             Ap   App
    DOCC [    19,    9 ]
    SOCC [     1,    0 ]

  @DF-UKS Final Energy:  -406.57303833515698

   => Energetics <=

    Nuclear Repulsion Energy =            216.6130818288164335
    One-Electron Energy =               -1147.3354829420732131
    Two-Electron Energy =                 546.2429043936132302
    DFT Exchange-Correlation Energy =     -22.0934065355134948
    Empirical Dispersion Energy =          -0.0001350800000000
    VV10 Nonlocal Energy =                  0.0000000000000000
    Total Energy =                       -406.5730383351570367

  UHF NO Occupations:
  HONO-2 :   18 Ap 1.9962322
  HONO-1 :   19 Ap 1.9893248
  HONO-0 :   20 Ap 1.0000000
  LUNO+0 :   21 Ap 0.0106752
  LUNO+1 :   22 Ap 0.0037678
  LUNO+2 :   23 Ap 0.0005744
  LUNO+3 :   24 Ap 0.0003267

Computation Completed

Properties will be evaluated at   0.000000,   0.000000,   0.000000 [a0]

Properties computed using the SCF density matrix

  Nuclear Dipole Moment: [e a0]
     X:     0.0000      Y:     0.0000      Z:    -0.0000

  Electronic Dipole Moment: [e a0]
     X:    -0.0005      Y:     0.0000      Z:    -0.5528

  Dipole Moment: [e a0]
     X:    -0.0005      Y:     0.0000      Z:    -0.5528     Total:     0.5528

  Dipole Moment: [D]
     X:    -0.0012      Y:     0.0000      Z:    -1.4050     Total:     1.4050

*** tstop() called on compute087.bc4.acrc.priv at Fri Nov  5 05:15:16 2021
Module time:
	user time   =     959.45 seconds =      15.99 minutes
	system time =      28.89 seconds =       0.48 minutes
	total time  =         43 seconds =       0.72 minutes
Total time:
	user time   =   24705.99 seconds =     411.77 minutes
	system time =     413.48 seconds =       6.89 minutes
	total time  =       3226 seconds =      53.77 minutes

*** tstart() called on compute087.bc4.acrc.priv
*** at Fri Nov  5 05:15:16 2021

         ------------------------------------------------------------
                                   SCF GRAD
                          Rob Parrish, Justin Turney,
                       Andy Simmonett, and Alex Sokolov
         ------------------------------------------------------------

  ==> Geometry <==

    Molecular point group: cs
    Full point group: Cs

    Geometry (in Angstrom), charge = 0, multiplicity = 2:

       Center              X                  Y                   Z               Mass
    ------------   -----------------  -----------------  -----------------  -----------------
         AU          -0.000104532575     0.000000000000     1.587599679394   196.966568790000
         AU           1.271976376565     0.000000000000    -0.793897696881   196.966568790000
         AU          -1.271871843990     0.000000000000    -0.793701982513   196.966568790000

  Nuclear repulsion =  216.613081828816433

  ==> Basis Set <==

  Basis Set: DEF2-TZVPPD
    Blend: DEF2-TZVPPD
    Number of shells: 51
    Number of basis functions: 177
    Number of Cartesian functions: 222
    Spherical Harmonics?: true
    Max angular momentum: 4

  Core potential: DEF2-TZVPPD
    Number of shells: 12
    Number of ECP primitives: 42
    Number of ECP core electrons: 180
    Max angular momentum: 3

  ==> DFJKGrad: Density-Fitted SCF Gradients <==

    Gradient:                    1
    J tasked:                  Yes
    K tasked:                  Yes
    wK tasked:                  No
    OpenMP threads:             28
    Integrals threads:          28
    Memory [MiB]:            85830
    Schwarz Cutoff:          1E-12
    Fitting Condition:       1E-10

   => Auxiliary Basis Set <=

  Basis Set: (DEF2-TZVPPD AUX)
    Blend: DEF2-UNIVERSAL-JKFIT
    Number of shells: 153
    Number of basis functions: 741
    Number of Cartesian functions: 1095
    Spherical Harmonics?: true
    Max angular momentum: 6

  ==> DFT Potential <==

   => Composite Functional: MN15-D3BJ <=

   MN15 Hybrid Meta-GGA Exchange-Correlation Functional

    H. S. Yu, X. He, S. L. Li, and D. G. Truhlar, Chem. Sci. 7, 5032-5051, 2016

    Deriv               =              1
    GGA                 =           TRUE
    Meta                =           TRUE

    Exchange Hybrid     =           TRUE
    MP2 Hybrid          =          FALSE

   => Exchange Functionals <=

    1.0000   XC_HYB_MGGA_X_MN15

   => Exact (HF) Exchange <=

    0.4400               HF

   => Correlation Functionals <=

    1.0000   XC_MGGA_C_MN15

   => LibXC Density Thresholds  <==

    XC_MGGA_C_MN15:  1.00E-15
    XC_HYB_MGGA_X_MN15:  1.00E-15

   => Molecular Quadrature <=

    Radial Scheme          =       TREUTLER
    Pruning Scheme         =           NONE
    Nuclear Scheme         =       TREUTLER

    BS radius alpha        =              1
    Pruning alpha          =              1
    Radial Points          =             75
    Spherical Points       =            302
    Total Points           =          64078
    Total Blocks           =            580
    Max Points             =            255
    Max Functions          =            174
    Weights Tolerance      =       1.00E-15

  -Total Gradient:
     Atom            X                  Y                   Z
    ------   -----------------  -----------------  -----------------
       1       -0.000036912212     0.000000000000    -0.104629988692
       2       -0.154974506418     0.000000000000     0.052330877300
       3        0.155014243922     0.000000000000     0.052388054536

*** tstop() called on compute087.bc4.acrc.priv at Fri Nov  5 05:15:30 2021
Module time:
	user time   =     113.53 seconds =       1.89 minutes
	system time =       3.62 seconds =       0.06 minutes
	total time  =         14 seconds =       0.23 minutes
Total time:
	user time   =   24823.51 seconds =     413.73 minutes
	system time =     417.31 seconds =       6.96 minutes
	total time  =       3240 seconds =      54.00 minutes

  ==> Adding ECP gradient terms (computed numerically) <==

  -ECP Gradient:
     Atom            X                  Y                   Z
    ------   -----------------  -----------------  -----------------
       1        0.000039585852     0.000000000000     0.104650734798
       2        0.154958730736     0.000000000000    -0.052292788055
       3       -0.155011292821     0.000000000000    -0.052357912560

  -Total Gradient:
     Atom            X                  Y                   Z
    ------   -----------------  -----------------  -----------------
       1        0.000002673639     0.000000000000     0.000020746106
       2       -0.000015775682     0.000000000000     0.000038089245
       3        0.000002951101     0.000000000000     0.000030141977

         ----------------------------------------------------------
                                   FINDIF
                     R. A. King and Jonathon Misiewicz
         ---------------------------------------------------------

  Computing second-derivative from gradients using projected,
  symmetry-adapted, cartesian coordinates.

  6 gradients passed in, including the reference geometry.
  Generating complete list of displacements from unique ones.

    Operation 2 takes plus displacements of irrep B1 to minus ones.

-------------------------------------------------------------

  ==> Harmonic Vibrational Analysis <==

  non-mass-weighted Hessian:       Symmetric? True   Hermitian? True   Lin Dep Dim?  6 (0)
  projection of translations (True) and rotations (True) removed 6 degrees of freedom (6)
  total projector:                 Symmetric? True   Hermitian? True   Lin Dep Dim?  6 (6)
  mass-weighted Hessian:           Symmetric? True   Hermitian? True   Lin Dep Dim?  6 (0)
  pre-proj  low-frequency mode:    0.0000i [cm^-1]
  pre-proj  low-frequency mode:    0.0000i [cm^-1]
  pre-proj  low-frequency mode:    0.0000i [cm^-1]
  pre-proj  low-frequency mode:    0.0000i [cm^-1]
  pre-proj  low-frequency mode:    0.0000  [cm^-1]
  pre-proj  low-frequency mode:    0.0000  [cm^-1]
  pre-proj  low-frequency mode:    0.0000  [cm^-1]
  pre-proj  all modes:['58.7407i' '0.0000i' '0.0000i' '0.0000i' '0.0000' '0.0000' '0.0000'
 '107.1479' '164.3145']
  projected mass-weighted Hessian: Symmetric? True   Hermitian? True   Lin Dep Dim?  6 (6)
  post-proj low-frequency mode:   58.7407i [cm^-1] (V)
  post-proj low-frequency mode:    0.0000i [cm^-1] (TR)
  post-proj low-frequency mode:    0.0000i [cm^-1] (TR)
  post-proj low-frequency mode:    0.0000i [cm^-1] (TR)
  post-proj low-frequency mode:    0.0000i [cm^-1] (TR)
  post-proj low-frequency mode:    0.0000  [cm^-1] (TR)
  post-proj low-frequency mode:    0.0000  [cm^-1] (TR)
  post-proj  all modes:['58.7407i' '0.0000i' '0.0000i' '0.0000i' '0.0000i' '0.0000' '0.0000'
 '107.1479' '164.3145']

  Vibration                       1                   8                   9
  Freq [cm^-1]                 58.7407i            107.1479            164.3145
  Irrep                           B1                  A1                  A1
  Reduced mass [u]             196.9666            196.9666            196.9666
  Force const [mDyne/A]        -0.4004              1.3323              3.1332
  Turning point v=0 [a0]        0.0000              0.0755              0.0610
  RMS dev v=0 [a0 u^1/2]        0.0000              0.7496              0.6053
  Char temp [K]                 0.0000             154.1620            236.4120
  ----------------------------------------------------------------------------------
      1   AU               0.55  0.00  0.00   -0.00 -0.00  0.72   -0.00  0.00  0.38
      2   AU              -0.28 -0.00  0.52   -0.33 -0.00 -0.36    0.63  0.00 -0.19
      3   AU              -0.28 -0.00 -0.52    0.33  0.00 -0.36   -0.63  0.00 -0.19

  ==> Thermochemistry Components <==

  Entropy, S
    Electronic S            1.377 [cal/(mol K)]        5.763 [J/(mol K)]       0.00219507 [mEh/K] (multiplicity = 2)
    Translational S        45.013 [cal/(mol K)]      188.336 [J/(mol K)]       0.07173329 [mEh/K] (mol. weight = 590.8997 [u], P = 101325.00 [Pa])
    Rotational S           30.391 [cal/(mol K)]      127.157 [J/(mol K)]       0.04843144 [mEh/K] (symmetry no. = 2)
    Vibrational S           5.819 [cal/(mol K)]       24.349 [J/(mol K)]       0.00927391 [mEh/K]
  Total S                  82.601 [cal/(mol K)]      345.604 [J/(mol K)]       0.13163372 [mEh/K]
  Correction S              0.000 [cal/(mol K)]        0.000 [J/(mol K)]       0.00000000 [mEh/K]

  Constant volume heat capacity, Cv
    Electronic Cv           0.000 [cal/(mol K)]        0.000 [J/(mol K)]       0.00000000 [mEh/K]
    Translational Cv        2.981 [cal/(mol K)]       12.472 [J/(mol K)]       0.00475022 [mEh/K]
    Rotational Cv           2.981 [cal/(mol K)]       12.472 [J/(mol K)]       0.00475022 [mEh/K]
    Vibrational Cv          3.830 [cal/(mol K)]       16.024 [J/(mol K)]       0.00610316 [mEh/K]
  Total Cv                  9.791 [cal/(mol K)]       40.967 [J/(mol K)]       0.01560360 [mEh/K]
  Correction Cv             0.000 [cal/(mol K)]        0.000 [J/(mol K)]       0.00000000 [mEh/K]

  Constant pressure heat capacity, Cp
    Electronic Cp           0.000 [cal/(mol K)]        0.000 [J/(mol K)]       0.00000000 [mEh/K]
    Translational Cp        4.968 [cal/(mol K)]       20.786 [J/(mol K)]       0.00791703 [mEh/K]
    Rotational Cp           2.981 [cal/(mol K)]       12.472 [J/(mol K)]       0.00475022 [mEh/K]
    Vibrational Cp          3.830 [cal/(mol K)]       16.024 [J/(mol K)]       0.00610316 [mEh/K]
  Total Cp                 11.779 [cal/(mol K)]       49.282 [J/(mol K)]       0.01877041 [mEh/K]
  Correction Cp             0.000 [cal/(mol K)]        0.000 [J/(mol K)]       0.00000000 [mEh/K]

  ==> Thermochemistry Energy Analysis <==

  Raw electronic energy, E0
  Total E0, Electronic energy at well bottom at 0 [K]                 -406.57303833 [Eh]

  Zero-point energy, ZPE_vib = Sum_i nu_i / 2
    Electronic ZPE          0.000 [kcal/mol]        0.000 [kJ/mol]       0.00000000 [Eh]
    Translational ZPE       0.000 [kcal/mol]        0.000 [kJ/mol]       0.00000000 [Eh]
    Rotational ZPE          0.000 [kcal/mol]        0.000 [kJ/mol]       0.00000000 [Eh]
    Vibrational ZPE         0.388 [kcal/mol]        1.624 [kJ/mol]       0.00061844 [Eh]         135.731 [cm^-1]
  Correction ZPE            0.388 [kcal/mol]        1.624 [kJ/mol]       0.00061844 [Eh]         135.731 [cm^-1]
  Total ZPE, Electronic energy at 0 [K]                               -406.57241989 [Eh]

  Thermal Energy, E (includes ZPE)
    Electronic E            0.000 [kcal/mol]        0.000 [kJ/mol]       0.00000000 [Eh]
    Translational E         0.889 [kcal/mol]        3.718 [kJ/mol]       0.00141628 [Eh]
    Rotational E            0.889 [kcal/mol]        3.718 [kJ/mol]       0.00141628 [Eh]
    Vibrational E           1.229 [kcal/mol]        5.141 [kJ/mol]       0.00195827 [Eh]
  Correction E              3.006 [kcal/mol]       12.578 [kJ/mol]       0.00479083 [Eh]
  Total E, Electronic energy at  298.15 [K]                           -406.56824750 [Eh]

  Enthalpy, H_trans = E_trans + k_B * T
    Electronic H            0.000 [kcal/mol]        0.000 [kJ/mol]       0.00000000 [Eh]
    Translational H         1.481 [kcal/mol]        6.197 [kJ/mol]       0.00236046 [Eh]
    Rotational H            0.889 [kcal/mol]        3.718 [kJ/mol]       0.00141628 [Eh]
    Vibrational H           1.229 [kcal/mol]        5.141 [kJ/mol]       0.00195827 [Eh]
  Correction H              3.599 [kcal/mol]       15.057 [kJ/mol]       0.00573501 [Eh]
  Total H, Enthalpy at  298.15 [K]                                    -406.56730332 [Eh]

  Gibbs free energy, G = H - T * S
    Electronic G           -0.411 [kcal/mol]       -1.718 [kJ/mol]      -0.00065446 [Eh]
    Translational G       -11.940 [kcal/mol]      -49.955 [kJ/mol]      -0.01902682 [Eh]
    Rotational G           -8.172 [kcal/mol]      -34.193 [kJ/mol]      -0.01302356 [Eh]
    Vibrational G          -0.506 [kcal/mol]       -2.118 [kJ/mol]      -0.00080675 [Eh]
  Correction G            -21.029 [kcal/mol]      -87.985 [kJ/mol]      -0.03351158 [Eh]
  Total G, Free enthalpy at  298.15 [K]                               -406.60654991 [Eh]

*** Psi4 exiting successfully. Buy a developer a beer!
