                               Psi4 1.4.1 release

  ==> Input File <==

--------------------------------------------------------------------------
memory 120 GB

molecule {
1 1
Au       0.000000    0.000000    0.000000
Au       0.000000    0.000000    2.576864
Au       0.000000    0.000000   -2.576864
 }

set dynamic_level 1
set basis Def2-TZVPPD

optimize("MN15-D3BJ")
frequencies("MN15-D3BJ")
--------------------------------------------------------------------------

    Molecular point group: d2h
  Charge       = 1
  Multiplicity = 1
  Basis Set: DEF2-TZVPPD
    Blend: DEF2-TZVPPD
  Basis Set: (DEF2-TZVPPD AUX)
    Blend: DEF2-UNIVERSAL-JKFIT
  @DF-RKS Final Energy:  -406.23695799907523
    Total Energy =                       -406.2369579990752868
    Molecular point group: d2h
  Basis Set: DEF2-TZVPPD
    Blend: DEF2-TZVPPD
  Basis Set: (DEF2-TZVPPD AUX)
    Blend: DEF2-UNIVERSAL-JKFIT
  Basis Set: DEF2-TZVPPD
    Blend: DEF2-TZVPPD
  Basis Set: (DEF2-TZVPPD AUX)
    Blend: DEF2-UNIVERSAL-JKFIT
  @DF-RKS Final Energy:  -406.23695819704074
    Total Energy =                       -406.2369581970407921
  Basis Set: DEF2-TZVPPD
    Blend: DEF2-TZVPPD
  Basis Set: (DEF2-TZVPPD AUX)
    Blend: DEF2-UNIVERSAL-JKFIT
  **** Optimization is complete! (in 2 steps) ****
    Final optimized geometry and variables:
  Basis Set: DEF2-TZVPPD
    Blend: DEF2-TZVPPD
  @DF-RKS Final Energy:  -406.23695819704136
    Total Energy =                       -406.2369581970413606
  @DF-RKS Final Energy:  -406.23695819704136
    Total Energy =                       -406.2369581970414174
  @DF-RKS Final Energy:  -406.23695823882065
    Total Energy =                       -406.2369582388206481
  @DF-RKS Final Energy:  -406.23695814517407
    Total Energy =                       -406.2369581451741283
  @DF-RKS Final Energy:  -406.23695818197899
    Total Energy =                       -406.2369581819789914
  Basis Set: (DEF2-TZVPPD AUX)
    Blend: DEF2-UNIVERSAL-JKFIT
  Basis Set: DEF2-TZVPPD
    Blend: DEF2-TZVPPD
  Basis Set: (DEF2-TZVPPD AUX)
    Blend: DEF2-UNIVERSAL-JKFIT
  @DF-RKS Final Energy:  -406.23695819978650
    Total Energy =                       -406.2369581997864998
  Basis Set: DEF2-TZVPPD
    Blend: DEF2-TZVPPD
  Basis Set: (DEF2-TZVPPD AUX)
    Blend: DEF2-UNIVERSAL-JKFIT
    Molecular point group: c2v
  Charge       = 1
  Multiplicity = 1
  Basis Set: DEF2-TZVPPD
    Blend: DEF2-TZVPPD
  Basis Set: (DEF2-TZVPPD AUX)
    Blend: DEF2-UNIVERSAL-JKFIT

    Orbital Energies [Eh]
    ---------------------

    Doubly Occupied:

       1B2    -4.318004     1A1    -4.317989     2A1    -4.279492
       2B2    -2.527326     3A1    -2.526001     4A1    -2.521097
       1B1    -2.521097     3B2    -2.521062     1A2    -2.521062
       4B2    -2.488868     5A1    -2.478094     2B1    -2.478094
       6A1    -0.628291     5B2    -0.585676     2A2    -0.585676
       6B2    -0.565938     3B1    -0.562787     7A1    -0.562787
       8A1    -0.554937     4B1    -0.554924     7B2    -0.553753
       3A2    -0.553740     9A1    -0.504744     5B1    -0.504726
       4A2    -0.496404     8B2    -0.496404    10A1    -0.494183
      11A1    -0.473559

  @DF-RKS Final Energy:  -406.23695819983402

   => Energetics <=

    Nuclear Repulsion Energy =            185.2201096982997512
    One-Electron Energy =               -1073.7946478639394172
    Two-Electron Energy =                 504.2772555597016435
    DFT Exchange-Correlation Energy =     -21.9395422938960820
    Empirical Dispersion Energy =          -0.0001333000000000
    VV10 Nonlocal Energy =                  0.0000000000000000
    Total Energy =                       -406.2369581998340777

  Dipole Moment: [D]
     X:     0.0000      Y:     0.0000      Z:    -0.0000     Total:     0.0000

    Molecular point group: c2v

    Geometry (in Angstrom), charge = 1, multiplicity = 1:

       Center              X                  Y                   Z               Mass
    ------------   -----------------  -----------------  -----------------  -----------------
         AU          -0.000153932119     0.000000000000     0.000000000000   196.966568790000
         AU           0.000076966060     0.000000000000     2.578458850260   196.966568790000
         AU           0.000076966060     0.000000000000    -2.578458850260   196.966568790000

  Basis Set: DEF2-TZVPPD
    Blend: DEF2-TZVPPD
  Basis Set: (DEF2-TZVPPD AUX)
    Blend: DEF2-UNIVERSAL-JKFIT

  -Total Gradient:
     Atom            X                  Y                   Z
    ------   -----------------  -----------------  -----------------
       1        0.000010235273     0.000000000000     0.000000000000
       2       -0.000005112740     0.000000000000     0.000016728534
       3       -0.000005112740     0.000000000000    -0.000016728534

  Vibration                       1                   2                   8
  Freq [cm^-1]                 68.7040i            68.6949i            102.5158
  Irrep                          B2u                 B3u                  Ag
  Reduced mass [u]             196.9666            196.9666            196.9666
  Force const [mDyne/A]        -0.5478             -0.5476              1.2196

  Vibration                       9
  Freq [cm^-1]                 200.1347
  Irrep                          B1u
  Reduced mass [u]             196.9666
  Force const [mDyne/A]         4.6482

  ==> Thermochemistry Components <==

  Entropy, S
    Electronic S            0.000 [cal/(mol K)]        0.000 [J/(mol K)]       0.00000000 [mEh/K] (multiplicity = 1)
    Translational S        45.013 [cal/(mol K)]      188.336 [J/(mol K)]       0.07173329 [mEh/K] (mol. weight = 590.8997 [u], P = 101325.00 [Pa])
    Rotational S           21.236 [cal/(mol K)]       88.852 [J/(mol K)]       0.03384186 [mEh/K] (symmetry no. = 2)
    Vibrational S           5.538 [cal/(mol K)]       23.170 [J/(mol K)]       0.00882499 [mEh/K]
  Total S                  71.787 [cal/(mol K)]      300.358 [J/(mol K)]       0.11440014 [mEh/K]
  Correction S              0.000 [cal/(mol K)]        0.000 [J/(mol K)]       0.00000000 [mEh/K]

  Constant volume heat capacity, Cv
    Electronic Cv           0.000 [cal/(mol K)]        0.000 [J/(mol K)]       0.00000000 [mEh/K]
    Translational Cv        2.981 [cal/(mol K)]       12.472 [J/(mol K)]       0.00475022 [mEh/K]
    Rotational Cv           1.987 [cal/(mol K)]        8.314 [J/(mol K)]       0.00316681 [mEh/K]
    Vibrational Cv          3.787 [cal/(mol K)]       15.844 [J/(mol K)]       0.00603473 [mEh/K]
  Total Cv                  8.755 [cal/(mol K)]       36.630 [J/(mol K)]       0.01395176 [mEh/K]
  Correction Cv             0.000 [cal/(mol K)]        0.000 [J/(mol K)]       0.00000000 [mEh/K]

  Constant pressure heat capacity, Cp
    Electronic Cp           0.000 [cal/(mol K)]        0.000 [J/(mol K)]       0.00000000 [mEh/K]
    Translational Cp        4.968 [cal/(mol K)]       20.786 [J/(mol K)]       0.00791703 [mEh/K]
    Rotational Cp           1.987 [cal/(mol K)]        8.314 [J/(mol K)]       0.00316681 [mEh/K]
    Vibrational Cp          3.787 [cal/(mol K)]       15.844 [J/(mol K)]       0.00603473 [mEh/K]
  Total Cp                 10.742 [cal/(mol K)]       44.945 [J/(mol K)]       0.01711857 [mEh/K]
  Correction Cp             0.000 [cal/(mol K)]        0.000 [J/(mol K)]       0.00000000 [mEh/K]

  ==> Thermochemistry Energy Analysis <==

  Raw electronic energy, E0
  Total E0, Electronic energy at well bottom at 0 [K]                 -406.23695820 [Eh]

  Zero-point energy, ZPE_vib = Sum_i nu_i / 2
    Electronic ZPE          0.000 [kcal/mol]        0.000 [kJ/mol]       0.00000000 [Eh]
    Translational ZPE       0.000 [kcal/mol]        0.000 [kJ/mol]       0.00000000 [Eh]
    Rotational ZPE          0.000 [kcal/mol]        0.000 [kJ/mol]       0.00000000 [Eh]
    Vibrational ZPE         0.433 [kcal/mol]        1.810 [kJ/mol]       0.00068949 [Eh]         151.325 [cm^-1]
  Correction ZPE            0.433 [kcal/mol]        1.810 [kJ/mol]       0.00068949 [Eh]         151.325 [cm^-1]
  Total ZPE, Electronic energy at 0 [K]                               -406.23626871 [Eh]

  Thermal Energy, E (includes ZPE)
    Electronic E            0.000 [kcal/mol]        0.000 [kJ/mol]       0.00000000 [Eh]
    Translational E         0.889 [kcal/mol]        3.718 [kJ/mol]       0.00141628 [Eh]
    Rotational E            0.592 [kcal/mol]        2.479 [kJ/mol]       0.00094418 [Eh]
    Vibrational E           1.242 [kcal/mol]        5.198 [kJ/mol]       0.00197982 [Eh]
  Correction E              2.724 [kcal/mol]       11.395 [kJ/mol]       0.00434028 [Eh]
  Total E, Electronic energy at  298.15 [K]                           -406.23261791 [Eh]

  Enthalpy, H_trans = E_trans + k_B * T
    Electronic H            0.000 [kcal/mol]        0.000 [kJ/mol]       0.00000000 [Eh]
    Translational H         1.481 [kcal/mol]        6.197 [kJ/mol]       0.00236046 [Eh]
    Rotational H            0.592 [kcal/mol]        2.479 [kJ/mol]       0.00094418 [Eh]
    Vibrational H           1.242 [kcal/mol]        5.198 [kJ/mol]       0.00197982 [Eh]
  Correction H              3.316 [kcal/mol]       13.874 [kJ/mol]       0.00528447 [Eh]
  Total H, Enthalpy at  298.15 [K]                                    -406.23167373 [Eh]

  Gibbs free energy, G = H - T * S
    Electronic G            0.000 [kcal/mol]        0.000 [kJ/mol]       0.00000000 [Eh]
    Translational G       -11.940 [kcal/mol]      -49.955 [kJ/mol]      -0.01902682 [Eh]
    Rotational G           -5.739 [kcal/mol]      -24.012 [kJ/mol]      -0.00914577 [Eh]
    Vibrational G          -0.409 [kcal/mol]       -1.710 [kJ/mol]      -0.00065135 [Eh]
  Correction G            -18.087 [kcal/mol]      -75.677 [kJ/mol]      -0.02882394 [Eh]
  Total G, Free enthalpy at  298.15 [K]                               -406.26578213 [Eh]

*** Psi4 exiting successfully. Buy a developer a beer!
