                               Psi4 1.4.1 release

  ==> Input File <==

--------------------------------------------------------------------------
memory 120 GB

molecule {
0 2
Au       0.000000    0.000000    0.000000
Au       0.000000    0.000000    2.547414
Au       0.000000    0.000000   -2.547414
 }

set reference uks
set dynamic_level 1
set basis Def2-TZVPPD

optimize("MN15-D3BJ")
frequencies("MN15-D3BJ")
--------------------------------------------------------------------------

    Molecular point group: d2h
  Charge       = 0
  Multiplicity = 2
  Basis Set: DEF2-TZVPPD
    Blend: DEF2-TZVPPD
  Basis Set: (DEF2-TZVPPD AUX)
    Blend: DEF2-UNIVERSAL-JKFIT
  @DF-UKS Final Energy:  -406.56641029534251
    Total Energy =                       -406.5664102953423935
    Molecular point group: d2h
  Basis Set: DEF2-TZVPPD
    Blend: DEF2-TZVPPD
  Basis Set: (DEF2-TZVPPD AUX)
    Blend: DEF2-UNIVERSAL-JKFIT
  Basis Set: DEF2-TZVPPD
    Blend: DEF2-TZVPPD
  Basis Set: (DEF2-TZVPPD AUX)
    Blend: DEF2-UNIVERSAL-JKFIT
  @DF-UKS Final Energy:  -406.56709440505563
    Total Energy =                       -406.5670944050556841
  Basis Set: DEF2-TZVPPD
    Blend: DEF2-TZVPPD
  Basis Set: (DEF2-TZVPPD AUX)
    Blend: DEF2-UNIVERSAL-JKFIT
  Basis Set: DEF2-TZVPPD
    Blend: DEF2-TZVPPD
  @DF-UKS Final Energy:  -406.55767369226669
    Total Energy =                       -406.5576736922667465
  @DF-UKS Final Energy:  -406.56663427227295
    Total Energy =                       -406.5666342722731770
  @DF-UKS Final Energy:  -406.56667277780662
    Total Energy =                       -406.5666727778064455
  @DF-UKS Final Energy:  -406.56625645960378
    Total Energy =                       -406.5662564596036077
  @DF-UKS Final Energy:  -406.56667277780639
    Total Energy =                       -406.5666727778062182
  @DF-UKS Final Energy:  -406.56641586699345
    Total Energy =                       -406.5664158669935091
  @DF-UKS Final Energy:  -406.56701931830253
    Total Energy =                       -406.5670193183024139
  @DF-UKS Final Energy:  -406.56643026230029
    Total Energy =                       -406.5664302623001731
  @DF-UKS Final Energy:  -406.56708144441279
    Total Energy =                       -406.5670814444127927
  @DF-UKS Final Energy:  -406.56643154760593
    Total Energy =                       -406.5664315476058164
  @DF-UKS Final Energy:  -406.56643113200778
    Total Energy =                       -406.5664311320077218
  @DF-UKS Final Energy:  -406.56643217355941
    Total Energy =                       -406.5664321735593489
  **** Optimization is complete! (in 5 steps) ****
    Final optimized geometry and variables:
  @DF-UKS Final Energy:  -406.56643217355077
    Total Energy =                       -406.5664321735507656
  @DF-UKS Final Energy:  -406.56643217408953
    Total Energy =                       -406.5664321740895275
  @DF-UKS Final Energy:  -406.56643220825094
    Total Energy =                       -406.5664322082507738
  @DF-UKS Final Energy:  -406.56643212806580
    Total Energy =                       -406.5664321280656281
  @DF-UKS Final Energy:  -406.56643250633795
    Total Energy =                       -406.5664325063378897
  Basis Set: (DEF2-TZVPPD AUX)
    Blend: DEF2-UNIVERSAL-JKFIT
  Basis Set: DEF2-TZVPPD
    Blend: DEF2-TZVPPD
  Basis Set: (DEF2-TZVPPD AUX)
    Blend: DEF2-UNIVERSAL-JKFIT
  @DF-UKS Final Energy:  -406.56643217463625
    Total Energy =                       -406.5664321746361907
  Basis Set: DEF2-TZVPPD
    Blend: DEF2-TZVPPD
  Basis Set: (DEF2-TZVPPD AUX)
    Blend: DEF2-UNIVERSAL-JKFIT
    Molecular point group: c2v
  Charge       = 0
  Multiplicity = 2
  Basis Set: DEF2-TZVPPD
    Blend: DEF2-TZVPPD
  Basis Set: (DEF2-TZVPPD AUX)
    Blend: DEF2-UNIVERSAL-JKFIT

    Orbital Energies [Eh]
    ---------------------

    Alpha Occupied:

       1B2    -4.115790     1A1    -4.115782     2A1    -4.103162
       2B2    -2.326577     3A1    -2.322658     1B1    -2.317648
       4A1    -2.317647     1A2    -2.317626     3B2    -2.317626
       4B2    -2.307328     5A1    -2.302451     2B1    -2.302451
       6A1    -0.439655     2A2    -0.394709     5B2    -0.394709
       6B2    -0.364105     3B1    -0.362504     7A1    -0.362504
       8A1    -0.355407     4B1    -0.355395     7B2    -0.352441
       3A2    -0.352430     9A1    -0.327764     5B1    -0.327747
      10A1    -0.322668     4A2    -0.307275     8B2    -0.307275
      11A1    -0.300812     9B2    -0.284008

    Alpha Virtual:

      12A1    -0.092385     6B1    -0.021911    13A1    -0.021911
      10B2     0.007955     5A2     0.023562    11B2     0.023562
      14A1     0.103540     7B1     0.103540    15A1     0.121391
      12B2     0.138642    16A1     0.169244    13B2     0.209662
       8B1     0.212548    17A1     0.212548     6A2     0.244755
      14B2     0.244755    18A1     0.264625    19A1     0.296679
       9B1     0.296685    20A1     0.297110    10B1     0.297110
      21A1     0.320306    15B2     0.332276     7A2     0.332284
      16B2     0.359708     8A2     0.359710    17B2     0.360463
      22A1     0.425531    11B1     0.425535    18B2     0.436518
      12B1     0.460432    23A1     0.460432    24A1     0.553820
      19B2     0.591979     9A2     0.591979    20B2     0.629231
      25A1     0.679317    21B2     0.839388    26A1     0.937644
      13B1     0.937644    22B2     1.045467    10A2     1.045476
      27A1     1.048470    11A2     1.067561    23B2     1.067561
      14B1     1.091742    28A1     1.091742    15B1     1.119564
      29A1     1.119564    12A2     1.123077    24B2     1.123077
      30A1     1.131287    16B1     1.131295    31A1     1.135144
      17B1     1.135144    18B1     1.158232    32A1     1.158232
      25B2     1.210143    26B2     1.224207    13A2     1.224221
      14A2     1.260911    27B2     1.260911    33A1     1.281478
      19B1     1.399931    34A1     1.399931    28B2     1.439546
      29B2     1.454932    15A2     1.454933    30B2     1.463465
      35A1     1.488318    20B1     1.488339    31B2     1.503836
      16A2     1.503854    36A1     1.542165    37A1     1.566906
      21B1     1.566935    22B1     1.647689    38A1     1.647689
      32B2     1.734933    17A2     1.734933    33B2     1.872147
      39A1     1.969473    40A1     2.083459    34B2     2.312867
      41A1     2.647874    23B1     3.416763    42A1     3.416763
      35B2     3.446392    18A2     3.446453    43A1     3.507113
      24B1     3.507113    36B2     3.511258    19A2     3.511258
      44A1     3.515234    25B1     3.515291    45A1     3.534634
      26B1     3.534634    37B2     3.572506    20A2     3.572506
      38B2     3.604100    21A2     3.604164    39B2     3.642286
      46A1     3.715185    27B1     3.793327    47A1     3.793327
      40B2     3.894853    22A2     4.010857    41B2     4.010857
      48A1     4.010914    49A1     4.016350    28B1     4.016364
      42B2     4.022017    23A2     4.022029    43B2     4.022153
      24A2     4.022153    29B1     4.022247    50A1     4.022247
      30B1     4.025880    25A2     4.025880    51A1     4.025905
      44B2     4.025905    52A1     4.040105    31B1     4.040108
      26A2     4.041451    45B2     4.041451    32B1     4.048768
      53A1     4.048834    33B1     4.093793    54A1     4.093793
      46B2     4.105070    27A2     4.105070    55A1     4.309366
      47B2     4.343287    34B1    26.860177    56A1    26.860177
      48B2    27.179574    28A2    27.179574    57A1    27.410807
      35B1    27.410807    49B2    27.741154    58A1    28.085065
      50B2    30.879589    59A1    43.478719    51B2    43.768068
      60A1    44.166901    61A1   204.941155    52B2   205.065960
      62A1   205.243759

    Beta Occupied:

       1B2    -4.114438     1A1    -4.114431     2A1    -4.103920
       2B2    -2.326687     3A1    -2.322403     4A1    -2.315020
       1B1    -2.315020     3B2    -2.314961     1A2    -2.314961
       4B2    -2.308794     5A1    -2.302686     2B1    -2.302686
       6A1    -0.434287     2A2    -0.391169     5B2    -0.391169
       6B2    -0.361091     3B1    -0.357288     7A1    -0.357288
       8A1    -0.349892     4B1    -0.349879     7B2    -0.345949
       3A2    -0.345936     9A1    -0.327490     5B1    -0.327473
       4A2    -0.306073     8B2    -0.306073    10A1    -0.301872
      11A1    -0.291832

    Beta Virtual:

       9B2    -0.182221    12A1    -0.072100    13A1    -0.011193
       6B1    -0.011193    10B2     0.028223    11B2     0.044621
       5A2     0.044621    14A1     0.111171     7B1     0.111171
      15A1     0.130706    12B2     0.141887    16A1     0.174809
       8B1     0.216963    17A1     0.216963    13B2     0.223615
       6A2     0.251577    14B2     0.251577    18A1     0.273004
      19A1     0.299100     9B1     0.299100    20A1     0.301481
      10B1     0.301487    21A1     0.327159     7A2     0.344934
      15B2     0.344936    16B2     0.368787     8A2     0.369351
      17B2     0.369354    22A1     0.429543    11B1     0.429546
      18B2     0.442802    23A1     0.468151    12B1     0.468151
      24A1     0.560922    19B2     0.595530     9A2     0.595530
      20B2     0.633118    25A1     0.680997    21B2     0.846532
      26A1     0.944654    13B1     0.944654    22B2     1.053953
      10A2     1.053956    27A1     1.056190    23B2     1.080118
      11A2     1.080118    14B1     1.105698    28A1     1.105698
      29A1     1.133522    15B1     1.133522    16B1     1.135673
      30A1     1.135673    24B2     1.139932    12A2     1.139932
      31A1     1.146140    17B1     1.146140    18B1     1.159301
      32A1     1.159301    25B2     1.212905    26B2     1.229746
      13A2     1.229758    14A2     1.273797    27B2     1.273797
      33A1     1.294193    19B1     1.406038    34A1     1.406038
      28B2     1.443738    29B2     1.462883    15A2     1.462883
      30B2     1.472219    35A1     1.496224    20B1     1.496235
      16A2     1.518007    31B2     1.518017    36A1     1.549168
      37A1     1.571670    21B1     1.571686    22B1     1.657955
      38A1     1.657955    32B2     1.739610    17A2     1.739610
      33B2     1.880146    39A1     1.974515    40A1     2.086546
      34B2     2.317877    41A1     2.651118    23B1     3.418795
      42A1     3.418795    35B2     3.448553    18A2     3.448597
      43A1     3.511374    24B1     3.511374    36B2     3.516731
      19A2     3.516731    44A1     3.519976    25B1     3.520000
      45A1     3.535210    26B1     3.535210    37B2     3.576393
      20A2     3.576393    38B2     3.606344    21A2     3.606388
      39B2     3.645710    46A1     3.718478    27B1     3.796572
      47A1     3.796572    40B2     3.897470    48A1     4.012259
      22A2     4.012889    41B2     4.012889    49A1     4.019420
      28B1     4.019425    42B2     4.025761    23A2     4.025765
      24A2     4.027048    43B2     4.027048    29B1     4.027155
      50A1     4.027155    30B1     4.031830    25A2     4.031830
      51A1     4.031891    44B2     4.031891    52A1     4.038775
      31B1     4.038784    26A2     4.040224    45B2     4.040224
      32B1     4.048486    53A1     4.048552    33B1     4.096969
      54A1     4.096969    46B2     4.104303    27A2     4.104303
      55A1     4.310902    47B2     4.346583    34B1    26.865141
      56A1    26.865141    48B2    27.188229    28A2    27.188229
      57A1    27.413310    35B1    27.413310    49B2    27.745478
      58A1    28.092225    50B2    30.884643    59A1    43.488843
      51B2    43.782184    60A1    44.170196    61A1   204.943541
      52B2   205.069380    62A1   205.244313

    Final Occupation by Irrep:
             A1    A2    B1    B2
    DOCC [    11,    4,    5,    8 ]
    SOCC [     0,    0,    0,    1 ]

  @DF-UKS Final Energy:  -406.56643217399835

   => Energetics <=

    Nuclear Repulsion Energy =            186.8545964550468170
    One-Electron Energy =               -1088.1914794988886115
    Two-Electron Energy =                 516.8573653705259403
    DFT Exchange-Correlation Energy =     -22.0867811006823906
    Empirical Dispersion Energy =          -0.0001334000000000
    VV10 Nonlocal Energy =                  0.0000000000000000
    Total Energy =                       -406.5664321739982370

  UHF NO Occupations:
  HONO-2 :    8 B2 1.9998900
  HONO-1 :   11 A1 1.9890520
  HONO-0 :    9 B2 1.0000000
  LUNO+0 :   12 A1 0.0109480
  LUNO+1 :   10 B2 0.0001100
  LUNO+2 :    5 A2 0.0000901
  LUNO+3 :   11 B2 0.0000901

Computation Completed

Properties will be evaluated at   0.000000,   0.000000,   0.000000 [a0]

Properties computed using the SCF density matrix

  Nuclear Dipole Moment: [e a0]
     X:     0.0000      Y:     0.0000      Z:    -0.0000

  Electronic Dipole Moment: [e a0]
     X:     0.0000      Y:     0.0000      Z:     0.0000

  Dipole Moment: [e a0]
     X:     0.0000      Y:     0.0000      Z:    -0.0000     Total:     0.0000

  Dipole Moment: [D]
     X:     0.0001      Y:     0.0000      Z:    -0.0000     Total:     0.0001

*** tstop() called on compute087.bc4.acrc.priv at Fri Nov  5 07:24:56 2021
Module time:
	user time   =     568.32 seconds =       9.47 minutes
	system time =      15.75 seconds =       0.26 minutes
	total time  =         29 seconds =       0.48 minutes
Total time:
	user time   =   38875.61 seconds =     647.93 minutes
	system time =     565.76 seconds =       9.43 minutes
	total time  =       5620 seconds =      93.67 minutes

*** tstart() called on compute087.bc4.acrc.priv
*** at Fri Nov  5 07:24:56 2021

         ------------------------------------------------------------
                                   SCF GRAD
                          Rob Parrish, Justin Turney,
                       Andy Simmonett, and Alex Sokolov
         ------------------------------------------------------------

  ==> Geometry <==

    Molecular point group: c2v
    Full point group: C2v

    Geometry (in Angstrom), charge = 0, multiplicity = 2:

       Center              X                  Y                   Z               Mass
    ------------   -----------------  -----------------  -----------------  -----------------
         AU          -0.000153932119     0.000000000000     0.000000000000   196.966568790000
         AU           0.000076966060     0.000000000000     2.555904110100   196.966568790000
         AU           0.000076966060     0.000000000000    -2.555904110100   196.966568790000

  Nuclear repulsion =  186.854596455046817

  ==> Basis Set <==

  Basis Set: DEF2-TZVPPD
    Blend: DEF2-TZVPPD
    Number of shells: 51
    Number of basis functions: 177
    Number of Cartesian functions: 222
    Spherical Harmonics?: true
    Max angular momentum: 4

  Core potential: DEF2-TZVPPD
    Number of shells: 12
    Number of ECP primitives: 42
    Number of ECP core electrons: 180
    Max angular momentum: 3

  ==> DFJKGrad: Density-Fitted SCF Gradients <==

    Gradient:                    1
    J tasked:                  Yes
    K tasked:                  Yes
    wK tasked:                  No
    OpenMP threads:             28
    Integrals threads:          28
    Memory [MiB]:            85830
    Schwarz Cutoff:          1E-12
    Fitting Condition:       1E-10

   => Auxiliary Basis Set <=

  Basis Set: (DEF2-TZVPPD AUX)
    Blend: DEF2-UNIVERSAL-JKFIT
    Number of shells: 153
    Number of basis functions: 741
    Number of Cartesian functions: 1095
    Spherical Harmonics?: true
    Max angular momentum: 6

  ==> DFT Potential <==

   => Composite Functional: MN15-D3BJ <=

   MN15 Hybrid Meta-GGA Exchange-Correlation Functional

    H. S. Yu, X. He, S. L. Li, and D. G. Truhlar, Chem. Sci. 7, 5032-5051, 2016

    Deriv               =              1
    GGA                 =           TRUE
    Meta                =           TRUE

    Exchange Hybrid     =           TRUE
    MP2 Hybrid          =          FALSE

   => Exchange Functionals <=

    1.0000   XC_HYB_MGGA_X_MN15

   => Exact (HF) Exchange <=

    0.4400               HF

   => Correlation Functionals <=

    1.0000   XC_MGGA_C_MN15

   => LibXC Density Thresholds  <==

    XC_MGGA_C_MN15:  1.00E-15
    XC_HYB_MGGA_X_MN15:  1.00E-15

   => Molecular Quadrature <=

    Radial Scheme          =       TREUTLER
    Pruning Scheme         =           NONE
    Nuclear Scheme         =       TREUTLER

    BS radius alpha        =              1
    Pruning alpha          =              1
    Radial Points          =             75
    Spherical Points       =            302
    Total Points           =          63844
    Total Blocks           =            609
    Max Points             =            255
    Max Functions          =            170
    Weights Tolerance      =       1.00E-15

  -Total Gradient:
     Atom            X                  Y                   Z
    ------   -----------------  -----------------  -----------------
       1        0.000019149928     0.000000000000     0.000000000000
       2       -0.000009643849     0.000000000000    -0.116395713219
       3       -0.000009643849     0.000000000000     0.116395713219

*** tstop() called on compute087.bc4.acrc.priv at Fri Nov  5 07:25:12 2021
Module time:
	user time   =     121.08 seconds =       2.02 minutes
	system time =       5.48 seconds =       0.09 minutes
	total time  =         16 seconds =       0.27 minutes
Total time:
	user time   =   39000.55 seconds =     650.01 minutes
	system time =     571.43 seconds =       9.52 minutes
	total time  =       5636 seconds =      93.93 minutes

  ==> Adding ECP gradient terms (computed numerically) <==

  -ECP Gradient:
     Atom            X                  Y                   Z
    ------   -----------------  -----------------  -----------------
       1       -0.000016172314     0.000000000000     0.000000000000
       2        0.000008076985     0.000000000000     0.116421215048
       3        0.000008076985     0.000000000000    -0.116421215048

  -Total Gradient:
     Atom            X                  Y                   Z
    ------   -----------------  -----------------  -----------------
       1        0.000002977614     0.000000000000     0.000000000000
       2       -0.000001566864     0.000000000000     0.000025501829
       3       -0.000001566864     0.000000000000    -0.000025501829

         ----------------------------------------------------------
                                   FINDIF
                     R. A. King and Jonathon Misiewicz
         ---------------------------------------------------------

  Computing second-derivative from gradients using projected,
  symmetry-adapted, cartesian coordinates.

  6 gradients passed in, including the reference geometry.
  Generating complete list of displacements from unique ones.

    Operation 3 takes plus displacements of irrep B1u to minus ones.
    Operation 2 takes plus displacements of irrep B2u to minus ones.
    Operation 2 takes plus displacements of irrep B3u to minus ones.

-------------------------------------------------------------

  ==> Harmonic Vibrational Analysis <==

  non-mass-weighted Hessian:       Symmetric? True   Hermitian? True   Lin Dep Dim?  5 (0)
  projection of translations (True) and rotations (True) removed 5 degrees of freedom (5)
  total projector:                 Symmetric? True   Hermitian? True   Lin Dep Dim?  5 (5)
  mass-weighted Hessian:           Symmetric? True   Hermitian? True   Lin Dep Dim?  5 (0)
  pre-proj  low-frequency mode:    0.0000i [cm^-1]
  pre-proj  low-frequency mode:    0.0000i [cm^-1]
  pre-proj  low-frequency mode:    0.0000i [cm^-1]
  pre-proj  low-frequency mode:    0.0000i [cm^-1]
  pre-proj  low-frequency mode:    0.0000i [cm^-1]
  pre-proj  low-frequency mode:    0.0000i [cm^-1]
  pre-proj  low-frequency mode:    0.0000i [cm^-1]
  pre-proj  low-frequency mode:    0.0000  [cm^-1]
  pre-proj  all modes:['1779.7414i' '37.4114i' '37.3801i' '0.0000i' '0.0000i' '0.0000i'
 '0.0000i' '0.0000' '883.1443']
  projected mass-weighted Hessian: Symmetric? True   Hermitian? True   Lin Dep Dim?  5 (5)
  post-proj low-frequency mode: 1779.7414i [cm^-1] (V)
  post-proj low-frequency mode:   37.4114i [cm^-1] (V)
  post-proj low-frequency mode:   37.3801i [cm^-1] (V)
  post-proj low-frequency mode:    0.0000i [cm^-1] (TR)
  post-proj low-frequency mode:    0.0000i [cm^-1] (TR)
  post-proj low-frequency mode:    0.0000i [cm^-1] (TR)
  post-proj low-frequency mode:    0.0000  [cm^-1] (TR)
  post-proj low-frequency mode:    0.0000  [cm^-1] (TR)
  post-proj  all modes:['1779.7414i' '37.4114i' '37.3801i' '0.0000i' '0.0000i' '0.0000i' '0.0000'
 '0.0000' '883.1443']

  Vibration                       1                   2                   3
  Freq [cm^-1]                1779.7414i           37.4114i            37.3801i
  Irrep                          B1u                 B2u                 B3u
  Reduced mass [u]             196.9666            196.9666            196.9666
  Force const [mDyne/A]       -367.5840            -0.1624             -0.1622
  Turning point v=0 [a0]        0.0000              0.0000              0.0000
  RMS dev v=0 [a0 u^1/2]        0.0000              0.0000              0.0000
  Char temp [K]                 0.0000              0.0000              0.0000
  ----------------------------------------------------------------------------------
      1   AU              -0.00 -0.00  0.82    0.00  0.82  0.00    0.82  0.00  0.00
      2   AU              -0.00  0.00 -0.41    0.00 -0.41  0.00   -0.41  0.00  0.00
      3   AU               0.00  0.00 -0.41    0.00 -0.41  0.00   -0.41  0.00  0.00

  Vibration                       9
  Freq [cm^-1]                 883.1443
  Irrep                           Ag
  Reduced mass [u]             196.9666
  Force const [mDyne/A]        90.5120

  ==> Thermochemistry Components <==

  Entropy, S
    Electronic S            1.377 [cal/(mol K)]        5.763 [J/(mol K)]       0.00219507 [mEh/K] (multiplicity = 2)
    Translational S        45.013 [cal/(mol K)]      188.336 [J/(mol K)]       0.07173329 [mEh/K] (mol. weight = 590.8997 [u], P = 101325.00 [Pa])
    Rotational S           21.201 [cal/(mol K)]       88.706 [J/(mol K)]       0.03378621 [mEh/K] (symmetry no. = 2)
    Vibrational S           0.149 [cal/(mol K)]        0.625 [J/(mol K)]       0.00023794 [mEh/K]
  Total S                  67.741 [cal/(mol K)]      283.429 [J/(mol K)]       0.10795251 [mEh/K]
  Correction S              0.000 [cal/(mol K)]        0.000 [J/(mol K)]       0.00000000 [mEh/K]

  Constant volume heat capacity, Cv
    Electronic Cv           0.000 [cal/(mol K)]        0.000 [J/(mol K)]       0.00000000 [mEh/K]
    Translational Cv        2.981 [cal/(mol K)]       12.472 [J/(mol K)]       0.00475022 [mEh/K]
    Rotational Cv           1.987 [cal/(mol K)]        8.314 [J/(mol K)]       0.00316681 [mEh/K]
    Vibrational Cv          0.523 [cal/(mol K)]        2.190 [J/(mol K)]       0.00083420 [mEh/K]
  Total Cv                  5.491 [cal/(mol K)]       22.976 [J/(mol K)]       0.00875123 [mEh/K]
  Correction Cv             0.000 [cal/(mol K)]        0.000 [J/(mol K)]       0.00000000 [mEh/K]

  Constant pressure heat capacity, Cp
    Electronic Cp           0.000 [cal/(mol K)]        0.000 [J/(mol K)]       0.00000000 [mEh/K]
    Translational Cp        4.968 [cal/(mol K)]       20.786 [J/(mol K)]       0.00791703 [mEh/K]
    Rotational Cp           1.987 [cal/(mol K)]        8.314 [J/(mol K)]       0.00316681 [mEh/K]
    Vibrational Cp          0.523 [cal/(mol K)]        2.190 [J/(mol K)]       0.00083420 [mEh/K]
  Total Cp                  7.479 [cal/(mol K)]       31.291 [J/(mol K)]       0.01191804 [mEh/K]
  Correction Cp             0.000 [cal/(mol K)]        0.000 [J/(mol K)]       0.00000000 [mEh/K]

  ==> Thermochemistry Energy Analysis <==

  Raw electronic energy, E0
  Total E0, Electronic energy at well bottom at 0 [K]                 -406.56643217 [Eh]

  Zero-point energy, ZPE_vib = Sum_i nu_i / 2
    Electronic ZPE          0.000 [kcal/mol]        0.000 [kJ/mol]       0.00000000 [Eh]
    Translational ZPE       0.000 [kcal/mol]        0.000 [kJ/mol]       0.00000000 [Eh]
    Rotational ZPE          0.000 [kcal/mol]        0.000 [kJ/mol]       0.00000000 [Eh]
    Vibrational ZPE         1.263 [kcal/mol]        5.282 [kJ/mol]       0.00201195 [Eh]         441.572 [cm^-1]
  Correction ZPE            1.263 [kcal/mol]        5.282 [kJ/mol]       0.00201195 [Eh]         441.572 [cm^-1]
  Total ZPE, Electronic energy at 0 [K]                               -406.56442022 [Eh]

  Thermal Energy, E (includes ZPE)
    Electronic E            0.000 [kcal/mol]        0.000 [kJ/mol]       0.00000000 [Eh]
    Translational E         0.889 [kcal/mol]        3.718 [kJ/mol]       0.00141628 [Eh]
    Rotational E            0.592 [kcal/mol]        2.479 [kJ/mol]       0.00094418 [Eh]
    Vibrational E           1.299 [kcal/mol]        5.433 [kJ/mol]       0.00206949 [Eh]
  Correction E              2.780 [kcal/mol]       11.631 [kJ/mol]       0.00442995 [Eh]
  Total E, Electronic energy at  298.15 [K]                           -406.56200222 [Eh]

  Enthalpy, H_trans = E_trans + k_B * T
    Electronic H            0.000 [kcal/mol]        0.000 [kJ/mol]       0.00000000 [Eh]
    Translational H         1.481 [kcal/mol]        6.197 [kJ/mol]       0.00236046 [Eh]
    Rotational H            0.592 [kcal/mol]        2.479 [kJ/mol]       0.00094418 [Eh]
    Vibrational H           1.299 [kcal/mol]        5.433 [kJ/mol]       0.00206949 [Eh]
  Correction H              3.372 [kcal/mol]       14.110 [kJ/mol]       0.00537413 [Eh]
  Total H, Enthalpy at  298.15 [K]                                    -406.56105804 [Eh]

  Gibbs free energy, G = H - T * S
    Electronic G           -0.411 [kcal/mol]       -1.718 [kJ/mol]      -0.00065446 [Eh]
    Translational G       -11.940 [kcal/mol]      -49.955 [kJ/mol]      -0.01902682 [Eh]
    Rotational G           -5.729 [kcal/mol]      -23.969 [kJ/mol]      -0.00912917 [Eh]
    Vibrational G           1.254 [kcal/mol]        5.247 [kJ/mol]       0.00199855 [Eh]
  Correction G            -16.825 [kcal/mol]      -70.395 [kJ/mol]      -0.02681191 [Eh]
  Total G, Free enthalpy at  298.15 [K]                               -406.59324408 [Eh]

*** Psi4 exiting successfully. Buy a developer a beer!
