                               Psi4 1.4.1 release

  ==> Input File <==

--------------------------------------------------------------------------
memory 120 GB

molecule {
1 1
Au       0.000000    1.501400   -0.000000
Au       1.300251   -0.750700   -0.000000
Au      -1.300251   -0.750700   -0.000000
 }

set dynamic_level 1
set basis Def2-TZVPPD

optimize("MN15-D3BJ")
frequencies("MN15-D3BJ")
--------------------------------------------------------------------------

    Molecular point group: c2v
  Charge       = 1
  Multiplicity = 1
  Basis Set: DEF2-TZVPPD
    Blend: DEF2-TZVPPD
  Basis Set: (DEF2-TZVPPD AUX)
    Blend: DEF2-UNIVERSAL-JKFIT
  @DF-RKS Final Energy:  -406.31318233153144
    Total Energy =                       -406.3131823315314364
    Molecular point group: c2v
  Basis Set: DEF2-TZVPPD
    Blend: DEF2-TZVPPD
  Basis Set: (DEF2-TZVPPD AUX)
    Blend: DEF2-UNIVERSAL-JKFIT
  Basis Set: DEF2-TZVPPD
    Blend: DEF2-TZVPPD
  Basis Set: (DEF2-TZVPPD AUX)
    Blend: DEF2-UNIVERSAL-JKFIT
  @DF-RKS Final Energy:  -406.31319148836587
    Total Energy =                       -406.3131914883659306
  Basis Set: DEF2-TZVPPD
    Blend: DEF2-TZVPPD
  Basis Set: (DEF2-TZVPPD AUX)
    Blend: DEF2-UNIVERSAL-JKFIT
  **** Optimization is complete! (in 2 steps) ****
    Final optimized geometry and variables:
  Basis Set: DEF2-TZVPPD
    Blend: DEF2-TZVPPD
  @DF-RKS Final Energy:  -406.31319148865839
    Total Energy =                       -406.3131914886584468
  @DF-RKS Final Energy:  -406.31319148865862
    Total Energy =                       -406.3131914886586742
  @DF-RKS Final Energy:  -406.31319156744314
    Total Energy =                       -406.3131915674430275
  @DF-RKS Final Energy:  -406.31319138655147
    Total Energy =                       -406.3131913865514662
  @DF-RKS Final Energy:  -406.31319150565258
    Total Energy =                       -406.3131915056525827
  Basis Set: (DEF2-TZVPPD AUX)
    Blend: DEF2-UNIVERSAL-JKFIT
  Basis Set: DEF2-TZVPPD
    Blend: DEF2-TZVPPD
  Basis Set: (DEF2-TZVPPD AUX)
    Blend: DEF2-UNIVERSAL-JKFIT
  @DF-RKS Final Energy:  -406.31319144815228
    Total Energy =                       -406.3131914481522813
  Basis Set: DEF2-TZVPPD
    Blend: DEF2-TZVPPD
  Basis Set: (DEF2-TZVPPD AUX)
    Blend: DEF2-UNIVERSAL-JKFIT
    Molecular point group: cs
  Charge       = 1
  Multiplicity = 1
  Basis Set: DEF2-TZVPPD
    Blend: DEF2-TZVPPD
  Basis Set: (DEF2-TZVPPD AUX)
    Blend: DEF2-UNIVERSAL-JKFIT

    Orbital Energies [Eh]
    ---------------------

    Doubly Occupied:

       1Ap    -4.318915     2Ap    -4.318390     3Ap    -4.318385
       4Ap    -2.533050     5Ap    -2.526267     6Ap    -2.526263
       7Ap    -2.519959     8Ap    -2.519951     9Ap    -2.519258
       1App   -2.518618     2App   -2.517503     3App   -2.517496
      10Ap    -0.644197    11Ap    -0.608265    12Ap    -0.608241
       4App   -0.601641    13Ap    -0.577530     5App   -0.569166
       6App   -0.569133    14Ap    -0.536812    15Ap    -0.536798
      16Ap    -0.531092    17Ap    -0.531081     7App   -0.528715
       8App   -0.527554     9App   -0.527526    18Ap    -0.522948
      19Ap    -0.497199

  @DF-RKS Final Energy:  -406.31319155488728

   => Energetics <=

    Nuclear Repulsion Energy =            219.9121804229633028
    One-Electron Energy =               -1142.5114439855883575
    Two-Electron Energy =                 538.2502319810109839
    DFT Exchange-Correlation Energy =     -21.9640248832731118
    Empirical Dispersion Energy =          -0.0001350900000000
    VV10 Nonlocal Energy =                  0.0000000000000000
    Total Energy =                       -406.3131915548872257

  Dipole Moment: [D]
     X:     0.0002      Y:     0.0000      Z:    -0.0001     Total:     0.0002

    Molecular point group: cs

    Geometry (in Angstrom), charge = 1, multiplicity = 1:

       Center              X                  Y                   Z               Mass
    ------------   -----------------  -----------------  -----------------  -----------------
         AU          -0.000108850909     0.000000000000     1.504533511114   196.966568790000
         AU           1.303125552487     0.000000000000    -0.752361015478   196.966568790000
         AU          -1.303016701577     0.000000000000    -0.752172495637   196.966568790000

  Basis Set: DEF2-TZVPPD
    Blend: DEF2-TZVPPD
  Basis Set: (DEF2-TZVPPD AUX)
    Blend: DEF2-UNIVERSAL-JKFIT

  -Total Gradient:
     Atom            X                  Y                   Z
    ------   -----------------  -----------------  -----------------
       1       -0.000034893761     0.000000000000     0.000088543315
       2        0.000128927410     0.000000000000    -0.000076299002
       3       -0.000111213015     0.000000000000     0.000002857175

  Vibration                       7                   8                   9
  Freq [cm^-1]                 118.7717            156.2547            182.6604
  Irrep                           A1                  B1                  A1
  Reduced mass [u]             196.9666            196.9666            196.9666
  Force const [mDyne/A]         1.6371              2.8334              3.8720

  ==> Thermochemistry Components <==

  Entropy, S
    Electronic S            0.000 [cal/(mol K)]        0.000 [J/(mol K)]       0.00000000 [mEh/K] (multiplicity = 1)
    Translational S        45.013 [cal/(mol K)]      188.336 [J/(mol K)]       0.07173329 [mEh/K] (mol. weight = 590.8997 [u], P = 101325.00 [Pa])
    Rotational S           30.300 [cal/(mol K)]      126.776 [J/(mol K)]       0.04828630 [mEh/K] (symmetry no. = 2)
    Vibrational S           8.016 [cal/(mol K)]       33.539 [J/(mol K)]       0.01277422 [mEh/K]
  Total S                  83.329 [cal/(mol K)]      348.650 [J/(mol K)]       0.13279381 [mEh/K]
  Correction S              0.000 [cal/(mol K)]        0.000 [J/(mol K)]       0.00000000 [mEh/K]

  Constant volume heat capacity, Cv
    Electronic Cv           0.000 [cal/(mol K)]        0.000 [J/(mol K)]       0.00000000 [mEh/K]
    Translational Cv        2.981 [cal/(mol K)]       12.472 [J/(mol K)]       0.00475022 [mEh/K]
    Rotational Cv           2.981 [cal/(mol K)]       12.472 [J/(mol K)]       0.00475022 [mEh/K]
    Vibrational Cv          5.693 [cal/(mol K)]       23.818 [J/(mol K)]       0.00907195 [mEh/K]
  Total Cv                 11.654 [cal/(mol K)]       48.762 [J/(mol K)]       0.01857238 [mEh/K]
  Correction Cv             0.000 [cal/(mol K)]        0.000 [J/(mol K)]       0.00000000 [mEh/K]

  Constant pressure heat capacity, Cp
    Electronic Cp           0.000 [cal/(mol K)]        0.000 [J/(mol K)]       0.00000000 [mEh/K]
    Translational Cp        4.968 [cal/(mol K)]       20.786 [J/(mol K)]       0.00791703 [mEh/K]
    Rotational Cp           2.981 [cal/(mol K)]       12.472 [J/(mol K)]       0.00475022 [mEh/K]
    Vibrational Cp          5.693 [cal/(mol K)]       23.818 [J/(mol K)]       0.00907195 [mEh/K]
  Total Cp                 13.642 [cal/(mol K)]       57.076 [J/(mol K)]       0.02173919 [mEh/K]
  Correction Cp             0.000 [cal/(mol K)]        0.000 [J/(mol K)]       0.00000000 [mEh/K]

  ==> Thermochemistry Energy Analysis <==

  Raw electronic energy, E0
  Total E0, Electronic energy at well bottom at 0 [K]                 -406.31319149 [Eh]

  Zero-point energy, ZPE_vib = Sum_i nu_i / 2
    Electronic ZPE          0.000 [kcal/mol]        0.000 [kJ/mol]       0.00000000 [Eh]
    Translational ZPE       0.000 [kcal/mol]        0.000 [kJ/mol]       0.00000000 [Eh]
    Rotational ZPE          0.000 [kcal/mol]        0.000 [kJ/mol]       0.00000000 [Eh]
    Vibrational ZPE         0.654 [kcal/mol]        2.738 [kJ/mol]       0.00104269 [Eh]         228.843 [cm^-1]
  Correction ZPE            0.654 [kcal/mol]        2.738 [kJ/mol]       0.00104269 [Eh]         228.843 [cm^-1]
  Total ZPE, Electronic energy at 0 [K]                               -406.31214880 [Eh]

  Thermal Energy, E (includes ZPE)
    Electronic E            0.000 [kcal/mol]        0.000 [kJ/mol]       0.00000000 [Eh]
    Translational E         0.889 [kcal/mol]        3.718 [kJ/mol]       0.00141628 [Eh]
    Rotational E            0.889 [kcal/mol]        3.718 [kJ/mol]       0.00141628 [Eh]
    Vibrational E           1.859 [kcal/mol]        7.779 [kJ/mol]       0.00296294 [Eh]
  Correction E              3.637 [kcal/mol]       15.216 [kJ/mol]       0.00579549 [Eh]
  Total E, Electronic energy at  298.15 [K]                           -406.30739600 [Eh]

  Enthalpy, H_trans = E_trans + k_B * T
    Electronic H            0.000 [kcal/mol]        0.000 [kJ/mol]       0.00000000 [Eh]
    Translational H         1.481 [kcal/mol]        6.197 [kJ/mol]       0.00236046 [Eh]
    Rotational H            0.889 [kcal/mol]        3.718 [kJ/mol]       0.00141628 [Eh]
    Vibrational H           1.859 [kcal/mol]        7.779 [kJ/mol]       0.00296294 [Eh]
  Correction H              4.229 [kcal/mol]       17.695 [kJ/mol]       0.00673967 [Eh]
  Total H, Enthalpy at  298.15 [K]                                    -406.30645182 [Eh]

  Gibbs free energy, G = H - T * S
    Electronic G            0.000 [kcal/mol]        0.000 [kJ/mol]       0.00000000 [Eh]
    Translational G       -11.940 [kcal/mol]      -49.955 [kJ/mol]      -0.01902682 [Eh]
    Rotational G           -8.145 [kcal/mol]      -34.080 [kJ/mol]      -0.01298028 [Eh]
    Vibrational G          -0.531 [kcal/mol]       -2.220 [kJ/mol]      -0.00084570 [Eh]
  Correction G            -20.615 [kcal/mol]      -86.255 [kJ/mol]      -0.03285280 [Eh]
  Total G, Free enthalpy at  298.15 [K]                               -406.34604429 [Eh]

*** Psi4 exiting successfully. Buy a developer a beer!
