                               Psi4 1.4.1 release

  ==> Input File <==

--------------------------------------------------------------------------
memory 120 GB

molecule {
0 1
Ag       0.000000    0.000000    0.317712
F        0.000000    0.000000   -1.659163
 }

set dynamic_level 1
set basis Def2-TZVPPD

optimize("SCAN-D3BJ")
frequencies("SCAN-D3BJ")
--------------------------------------------------------------------------

    Molecular point group: c2v
  Charge       = 0
  Multiplicity = 1
  Basis Set: DEF2-TZVPPD
    Blend: DEF2-TZVPPD
  Basis Set: (DEF2-TZVPPD AUX)
    Blend: DEF2-UNIVERSAL-JKFIT
  @DF-RKS Final Energy:  -246.86342612945546
    Total Energy =                       -246.8634261294554619
    Molecular point group: c2v
  Basis Set: DEF2-TZVPPD
    Blend: DEF2-TZVPPD
  Basis Set: (DEF2-TZVPPD AUX)
    Blend: DEF2-UNIVERSAL-JKFIT
  Basis Set: DEF2-TZVPPD
    Blend: DEF2-TZVPPD
  Basis Set: (DEF2-TZVPPD AUX)
    Blend: DEF2-UNIVERSAL-JKFIT
  @DF-RKS Final Energy:  -246.86308859362947
    Total Energy =                       -246.8630885936294703
  Basis Set: DEF2-TZVPPD
    Blend: DEF2-TZVPPD
  Basis Set: (DEF2-TZVPPD AUX)
    Blend: DEF2-UNIVERSAL-JKFIT
  Basis Set: DEF2-TZVPPD
    Blend: DEF2-TZVPPD
  @DF-RKS Final Energy:  -246.86188261115228
    Total Energy =                       -246.8618826111522822
  @DF-RKS Final Energy:  -246.86161393233874
    Total Energy =                       -246.8616139323387415
  @DF-RKS Final Energy:  -246.86155228146771
    Total Energy =                       -246.8615522814677092
  @DF-RKS Final Energy:  -246.86161393233880
    Total Energy =                       -246.8616139323387983
  @DF-RKS Final Energy:  -246.86158779909425
    Total Energy =                       -246.8615877990942522
  @DF-RKS Final Energy:  -246.86160087835523
    Total Energy =                       -246.8616008783552331
  @DF-RKS Final Energy:  -246.86154110687986
    Total Energy =                       -246.8615411068798551
  @DF-RKS Final Energy:  -246.86157108902134
    Total Energy =                       -246.8615710890213393
  @DF-RKS Final Energy:  -246.86154094640818
    Total Energy =                       -246.8615409464081836
  @DF-RKS Final Energy:  -246.86155604070120
    Total Energy =                       -246.8615560407012026
  **** Optimization is complete! (in 4 steps) ****
    Final optimized geometry and variables:
  @DF-RKS Final Energy:  -246.86155604070109
    Total Energy =                       -246.8615560407010889
  @DF-RKS Final Energy:  -246.86155604070137
    Total Energy =                       -246.8615560407013731
  Basis Set: (DEF2-TZVPPD AUX)
    Blend: DEF2-UNIVERSAL-JKFIT
  Basis Set: DEF2-TZVPPD
    Blend: DEF2-TZVPPD
  Basis Set: (DEF2-TZVPPD AUX)
    Blend: DEF2-UNIVERSAL-JKFIT
  @DF-RKS Final Energy:  -246.86158317527429
    Total Energy =                       -246.8615831752742906
  Basis Set: DEF2-TZVPPD
    Blend: DEF2-TZVPPD
  Basis Set: (DEF2-TZVPPD AUX)
    Blend: DEF2-UNIVERSAL-JKFIT
    Molecular point group: c2v
  Charge       = 0
  Multiplicity = 1
  Basis Set: DEF2-TZVPPD
    Blend: DEF2-TZVPPD
  Basis Set: (DEF2-TZVPPD AUX)
    Blend: DEF2-UNIVERSAL-JKFIT

    Orbital Energies [Eh]
    ---------------------

    Doubly Occupied:

       1A1   -24.383797     2A1    -3.723597     3A1    -2.314517
       1B1    -2.311650     1B2    -2.311650     4A1    -0.996326
       5A1    -0.352963     2B1    -0.326032     2B2    -0.326032
       1A2    -0.314456     6A1    -0.314456     7A1    -0.256332
       3B1    -0.251010     3B2    -0.251010

  @DF-RKS Final Energy:  -246.86152875657677

   => Energetics <=

    Nuclear Repulsion Energy =             44.0437082322248301
    One-Electron Energy =                -489.3600728534714221
    Two-Electron Energy =                 223.0764421944874130
    DFT Exchange-Correlation Energy =     -24.6215224798176067
    Empirical Dispersion Energy =          -0.0000838500000000
    VV10 Nonlocal Energy =                  0.0000000000000000
    Total Energy =                       -246.8615287565767744

  Dipole Moment: [D]
     X:     0.0000      Y:     0.0000      Z:     5.7045     Total:     5.7045

    Molecular point group: c2v

    Geometry (in Angstrom), charge = 0, multiplicity = 1:

       Center              X                  Y                   Z               Mass
    ------------   -----------------  -----------------  -----------------  -----------------
         AG           0.000000000000     0.000000000000     0.310022119131   106.905091600000
         F            0.000000000000     0.000000000000    -1.744512039243    18.998403162730

  Basis Set: DEF2-TZVPPD
    Blend: DEF2-TZVPPD
  Basis Set: (DEF2-TZVPPD AUX)
    Blend: DEF2-UNIVERSAL-JKFIT

  -Total Gradient:
     Atom            X                  Y                   Z
    ------   -----------------  -----------------  -----------------
       1        0.000000000000    -0.000000000000     0.005522561578
       2        0.000000000000    -0.000000000000     0.005408350005

  Vibration                       6
  Freq [cm^-1]                 413.5672
  Irrep                           A1
  Reduced mass [u]             21.6897
  Force const [mDyne/A]         2.1857

  ==> Thermochemistry Components <==

  Entropy, S
    Electronic S            0.000 [cal/(mol K)]        0.000 [J/(mol K)]       0.00000000 [mEh/K] (multiplicity = 1)
    Translational S        40.405 [cal/(mol K)]      169.053 [J/(mol K)]       0.06438884 [mEh/K] (mol. weight = 125.9035 [u], P = 101325.00 [Pa])
    Rotational S           15.360 [cal/(mol K)]       64.264 [J/(mol K)]       0.02447703 [mEh/K] (symmetry no. = 1)
    Vibrational S           0.914 [cal/(mol K)]        3.825 [J/(mol K)]       0.00145671 [mEh/K]
  Total S                  56.678 [cal/(mol K)]      237.142 [J/(mol K)]       0.09032258 [mEh/K]
  Correction S              0.000 [cal/(mol K)]        0.000 [J/(mol K)]       0.00000000 [mEh/K]

  Constant volume heat capacity, Cv
    Electronic Cv           0.000 [cal/(mol K)]        0.000 [J/(mol K)]       0.00000000 [mEh/K]
    Translational Cv        2.981 [cal/(mol K)]       12.472 [J/(mol K)]       0.00475022 [mEh/K]
    Rotational Cv           1.987 [cal/(mol K)]        8.314 [J/(mol K)]       0.00316681 [mEh/K]
    Vibrational Cv          1.441 [cal/(mol K)]        6.028 [J/(mol K)]       0.00229602 [mEh/K]
  Total Cv                  6.409 [cal/(mol K)]       26.814 [J/(mol K)]       0.01021305 [mEh/K]
  Correction Cv             0.000 [cal/(mol K)]        0.000 [J/(mol K)]       0.00000000 [mEh/K]

  Constant pressure heat capacity, Cp
    Electronic Cp           0.000 [cal/(mol K)]        0.000 [J/(mol K)]       0.00000000 [mEh/K]
    Translational Cp        4.968 [cal/(mol K)]       20.786 [J/(mol K)]       0.00791703 [mEh/K]
    Rotational Cp           1.987 [cal/(mol K)]        8.314 [J/(mol K)]       0.00316681 [mEh/K]
    Vibrational Cp          1.441 [cal/(mol K)]        6.028 [J/(mol K)]       0.00229602 [mEh/K]
  Total Cp                  8.396 [cal/(mol K)]       35.129 [J/(mol K)]       0.01337986 [mEh/K]
  Correction Cp             0.000 [cal/(mol K)]        0.000 [J/(mol K)]       0.00000000 [mEh/K]

  ==> Thermochemistry Energy Analysis <==

  Raw electronic energy, E0
  Total E0, Electronic energy at well bottom at 0 [K]                 -246.86155604 [Eh]

  Zero-point energy, ZPE_vib = Sum_i nu_i / 2
    Electronic ZPE          0.000 [kcal/mol]        0.000 [kJ/mol]       0.00000000 [Eh]
    Translational ZPE       0.000 [kcal/mol]        0.000 [kJ/mol]       0.00000000 [Eh]
    Rotational ZPE          0.000 [kcal/mol]        0.000 [kJ/mol]       0.00000000 [Eh]
    Vibrational ZPE         0.591 [kcal/mol]        2.474 [kJ/mol]       0.00094218 [Eh]         206.784 [cm^-1]
  Correction ZPE            0.591 [kcal/mol]        2.474 [kJ/mol]       0.00094218 [Eh]         206.784 [cm^-1]
  Total ZPE, Electronic energy at 0 [K]                               -246.86061387 [Eh]

  Thermal Energy, E (includes ZPE)
    Electronic E            0.000 [kcal/mol]        0.000 [kJ/mol]       0.00000000 [Eh]
    Translational E         0.889 [kcal/mol]        3.718 [kJ/mol]       0.00141628 [Eh]
    Rotational E            0.592 [kcal/mol]        2.479 [kJ/mol]       0.00094418 [Eh]
    Vibrational E           0.777 [kcal/mol]        3.252 [kJ/mol]       0.00123857 [Eh]
  Correction E              2.258 [kcal/mol]        9.449 [kJ/mol]       0.00359903 [Eh]
  Total E, Electronic energy at  298.15 [K]                           -246.85795701 [Eh]

  Enthalpy, H_trans = E_trans + k_B * T
    Electronic H            0.000 [kcal/mol]        0.000 [kJ/mol]       0.00000000 [Eh]
    Translational H         1.481 [kcal/mol]        6.197 [kJ/mol]       0.00236046 [Eh]
    Rotational H            0.592 [kcal/mol]        2.479 [kJ/mol]       0.00094418 [Eh]
    Vibrational H           0.777 [kcal/mol]        3.252 [kJ/mol]       0.00123857 [Eh]
  Correction H              2.851 [kcal/mol]       11.928 [kJ/mol]       0.00454321 [Eh]
  Total H, Enthalpy at  298.15 [K]                                    -246.85701283 [Eh]

  Gibbs free energy, G = H - T * S
    Electronic G            0.000 [kcal/mol]        0.000 [kJ/mol]       0.00000000 [Eh]
    Translational G       -10.565 [kcal/mol]      -44.206 [kJ/mol]      -0.01683707 [Eh]
    Rotational G           -3.987 [kcal/mol]      -16.681 [kJ/mol]      -0.00635364 [Eh]
    Vibrational G           0.505 [kcal/mol]        2.112 [kJ/mol]       0.00080425 [Eh]
  Correction G            -14.048 [kcal/mol]      -58.776 [kJ/mol]      -0.02238646 [Eh]
  Total G, Free enthalpy at  298.15 [K]                               -246.88394251 [Eh]

*** Psi4 exiting successfully. Buy a developer a beer!
