                               Psi4 1.4.1 release

  ==> Input File <==

--------------------------------------------------------------------------
memory 120 GB

molecule {
0 2
Ag       0.000000    1.533951   -0.000000
Ag       1.328441   -0.766976    0.000000
Ag      -1.328441   -0.766976   -0.000000
 }

set reference uks
set dynamic_level 1
set basis Def2-TZVPPD

optimize("SCAN-D3BJ")
frequencies("SCAN-D3BJ")
--------------------------------------------------------------------------

    Molecular point group: c2v
  Charge       = 0
  Multiplicity = 2
  Basis Set: DEF2-TZVPPD
    Blend: DEF2-TZVPPD
  Basis Set: (DEF2-TZVPPD AUX)
    Blend: DEF2-UNIVERSAL-JKFIT
  @DF-UKS Final Energy:  -441.09149461947243
    Total Energy =                       -441.0914946194722575
    Molecular point group: c2v
  Basis Set: DEF2-TZVPPD
    Blend: DEF2-TZVPPD
  Basis Set: (DEF2-TZVPPD AUX)
    Blend: DEF2-UNIVERSAL-JKFIT
  Basis Set: DEF2-TZVPPD
    Blend: DEF2-TZVPPD
  Basis Set: (DEF2-TZVPPD AUX)
    Blend: DEF2-UNIVERSAL-JKFIT
  @DF-UKS Final Energy:  -441.09226551543111
    Total Energy =                       -441.0922655154311656
  Basis Set: DEF2-TZVPPD
    Blend: DEF2-TZVPPD
  Basis Set: (DEF2-TZVPPD AUX)
    Blend: DEF2-UNIVERSAL-JKFIT
  Basis Set: DEF2-TZVPPD
    Blend: DEF2-TZVPPD
  @DF-UKS Final Energy:  -441.09286017604541
    Total Energy =                       -441.0928601760453489
  @DF-UKS Final Energy:  -441.09286863344926
    Total Energy =                       -441.0928686334491431
  @DF-UKS Final Energy:  -441.09285259938883
    Total Energy =                       -441.0928525993887774
  @DF-UKS Final Energy:  -441.09286863344914
    Total Energy =                       -441.0928686334490862
  @DF-UKS Final Energy:  -441.09285341874215
    Total Energy =                       -441.0928534187422656
  @DF-UKS Final Energy:  -441.09286106400100
    Total Energy =                       -441.0928610640009424
  @DF-UKS Final Energy:  -441.09284347650578
    Total Energy =                       -441.0928434765058341
  @DF-UKS Final Energy:  -441.09285233689502
    Total Energy =                       -441.0928523368949641
  @DF-UKS Final Energy:  -441.09284392963264
    Total Energy =                       -441.0928439296326360
  @DF-UKS Final Energy:  -441.09284815788976
    Total Energy =                       -441.0928481578895344
  **** Optimization is complete! (in 4 steps) ****
    Final optimized geometry and variables:
  @DF-UKS Final Energy:  -441.09284815789044
    Total Energy =                       -441.0928481578902165
  @DF-UKS Final Energy:  -441.09284815656736
    Total Energy =                       -441.0928481565671291
  @DF-UKS Final Energy:  -441.09284920085406
    Total Energy =                       -441.0928492008540616
  @DF-UKS Final Energy:  -441.09284709460530
    Total Energy =                       -441.0928470946050766
  @DF-UKS Final Energy:  -441.09285337111623
    Total Energy =                       -441.0928533711162345
  Basis Set: (DEF2-TZVPPD AUX)
    Blend: DEF2-UNIVERSAL-JKFIT
  Basis Set: DEF2-TZVPPD
    Blend: DEF2-TZVPPD
  Basis Set: (DEF2-TZVPPD AUX)
    Blend: DEF2-UNIVERSAL-JKFIT
  @DF-UKS Final Energy:  -441.09284291392260
    Total Energy =                       -441.0928429139225955
  Basis Set: DEF2-TZVPPD
    Blend: DEF2-TZVPPD
  Basis Set: (DEF2-TZVPPD AUX)
    Blend: DEF2-UNIVERSAL-JKFIT
    Molecular point group: cs
  Charge       = 0
  Multiplicity = 2
  Basis Set: DEF2-TZVPPD
    Blend: DEF2-TZVPPD
  Basis Set: (DEF2-TZVPPD AUX)
    Blend: DEF2-UNIVERSAL-JKFIT

    Orbital Energies [Eh]
    ---------------------

    Alpha Occupied:

       1Ap    -3.701289     2Ap    -3.700857     3Ap    -3.681052
       4Ap    -2.293836     5Ap    -2.289043     6Ap    -2.287761
       7Ap    -2.287155     1App   -2.286679     2App   -2.286222
       8Ap    -2.268619     9Ap    -2.267741     3App   -2.264515
      10Ap    -0.335702    11Ap    -0.324002     4App   -0.313239
      12Ap    -0.307379    13Ap    -0.298947     5App   -0.297615
       6App   -0.289862    14Ap    -0.278400     7App   -0.274772
      15Ap    -0.273951    16Ap    -0.267306     8App   -0.265075
      17Ap    -0.264346     9App   -0.263302    18Ap    -0.253707
      19Ap    -0.238372    20Ap    -0.143742

    Alpha Virtual:

      21Ap    -0.131188    10App   -0.056151    22Ap    -0.035065
      23Ap    -0.020243    24Ap    -0.018366    11App    0.023525
      12App    0.029084    25Ap     0.081739    26Ap     0.085674
      27Ap     0.088772    28Ap     0.109591    29Ap     0.159433
      13App    0.167396    30Ap     0.169926    31Ap     0.173656
      32Ap     0.186574    33Ap     0.187903    14App    0.222081
      15App    0.228158    34Ap     0.290877    35Ap     0.337918
      36Ap     0.347688    37Ap     0.348057    16App    0.377592
      17App    0.383208    18App    0.392057    38Ap     0.484042
      39Ap     0.485751    19App    0.525701    40Ap     0.549442
      20App    0.584410    21App    0.586046    41Ap     0.588523
      42Ap     0.590204    43Ap     0.673726    44Ap     0.677316
      45Ap     0.725291    46Ap     1.432372    47Ap     1.500562
      48Ap     1.513953    49Ap     1.520633    22App    1.523610
      23App    1.546928    24App    1.552197    50Ap     1.558534
      25App    1.566003    51Ap     1.567500    26App    1.578992
      27App    1.581808    28App    1.582101    52Ap     1.587029
      29App    1.596512    53Ap     1.597043    54Ap     1.607415
      30App    1.614119    55Ap     1.614157    56Ap     1.616584
      31App    1.631100    57Ap     1.653507    58Ap     1.681130
      59Ap     1.694171    32App    1.714821    60Ap     1.716560
      33App    1.718499    61Ap     1.742411    62Ap     1.746619
      63Ap     1.906463    64Ap     1.944344    65Ap     2.032880
      34App    2.034272    35App    2.050107    66Ap     2.074564
      36App    2.078456    67Ap     2.082758    37App    2.093381
      68Ap     2.103977    38App    2.114270    39App    2.125240
      69Ap     2.132474    70Ap     2.186533    71Ap     2.199805
      72Ap     2.249477    73Ap     2.373799    74Ap     2.550983
      75Ap     2.560452    76Ap     4.811929    77Ap     4.818249
      40App    4.821075    78Ap     4.832273    41App    4.847190
      79Ap     4.848223    42App    4.849482    43App    4.857956
      80Ap     4.858732    81Ap     4.867887    44App    4.868637
      45App    4.882929    82Ap     4.884351    46App    4.915744
      83Ap     4.929452    47App    4.933566    48App    4.948133
      84Ap     4.948461    85Ap     5.078010    86Ap     5.084669
      87Ap     5.134862    88Ap     5.617158    49App    5.617600
      50App    5.617918    51App    5.618352    89Ap     5.618597
      90Ap     5.618651    91Ap     5.619449    52App    5.620108
      92Ap     5.620352    53App    5.620959    54App    5.621260
      93Ap     5.621957    94Ap     5.622649    95Ap     5.622729
      55App    5.623764    56App    5.623864    96Ap     5.626482
      97Ap     5.628016    98Ap     5.639611    57App    5.641642
      58App    5.641675    99Ap     5.643317    59App    5.643823
     100Ap     5.644076    60App    5.644652   101Ap     5.645990
     102Ap     5.648563   103Ap    33.466195   104Ap    33.794226
     105Ap    33.807052   106Ap   110.859678   107Ap   110.961212
     108Ap   110.972923

    Beta Occupied:

       1Ap    -3.700896     2Ap    -3.700469     3Ap    -3.679883
       4Ap    -2.293406     5Ap    -2.289053     6Ap    -2.287853
       7Ap    -2.286865     1App   -2.286765     2App   -2.286316
       8Ap    -2.269281     9Ap    -2.267595     3App   -2.264958
      10Ap    -0.335485    11Ap    -0.321150     4App   -0.312488
      12Ap    -0.303750    13Ap    -0.296180     5App   -0.295847
       6App   -0.288121    14Ap    -0.277614     7App   -0.274703
      15Ap    -0.273149    16Ap    -0.263014     8App   -0.261184
      17Ap    -0.259891     9App   -0.258305    18Ap    -0.248594
      19Ap    -0.226509

    Beta Virtual:

      20Ap    -0.121691    21Ap    -0.103005    10App   -0.046593
      22Ap    -0.019975    23Ap    -0.002286    24Ap     0.001121
      11App    0.031393    12App    0.040173    25Ap     0.080330
      26Ap     0.084137    27Ap     0.091317    28Ap     0.111333
      29Ap     0.156668    30Ap     0.164257    13App    0.164807
      31Ap     0.170470    32Ap     0.180220    33Ap     0.186284
      14App    0.221192    15App    0.228733    34Ap     0.291851
      35Ap     0.341137    36Ap     0.349272    37Ap     0.353476
      16App    0.385707    17App    0.391004    18App    0.394228
      38Ap     0.490996    39Ap     0.495568    19App    0.534456
      40Ap     0.548995    20App    0.586475    41Ap     0.591398
      21App    0.593863    42Ap     0.595153    43Ap     0.673906
      44Ap     0.675909    45Ap     0.727250    46Ap     1.433579
      47Ap     1.503746    48Ap     1.516356    49Ap     1.523628
      22App    1.524021    23App    1.548405    24App    1.555192
      50Ap     1.559336    25App    1.566592    51Ap     1.567492
      26App    1.579077    27App    1.583345    28App    1.583519
      52Ap     1.587562    53Ap     1.596463    29App    1.598344
      54Ap     1.607388    30App    1.613161    55Ap     1.615688
      56Ap     1.616616    31App    1.632228    57Ap     1.654313
      58Ap     1.680078    59Ap     1.692351    32App    1.711414
      60Ap     1.715056    33App    1.717878    61Ap     1.737693
      62Ap     1.743029    63Ap     1.902294    64Ap     1.943755
      65Ap     2.030596    34App    2.032668    35App    2.048158
      66Ap     2.072785    67Ap     2.078338    36App    2.078354
      37App    2.089541    68Ap     2.101453    38App    2.113425
      39App    2.122738    69Ap     2.129262    70Ap     2.183790
      71Ap     2.196153    72Ap     2.247527    73Ap     2.369790
      74Ap     2.549381    75Ap     2.558557    76Ap     4.813291
      77Ap     4.819795    40App    4.822374    78Ap     4.833688
      41App    4.849163    79Ap     4.850242    42App    4.851128
      43App    4.859641    80Ap     4.860241    81Ap     4.869592
      44App    4.870159    45App    4.886930    82Ap     4.888218
      46App    4.917481    83Ap     4.931143    47App    4.935623
      84Ap     4.949325    48App    4.949341    85Ap     5.078696
      86Ap     5.085306    87Ap     5.135415    88Ap     5.618393
      49App    5.618469    50App    5.619208    89Ap     5.619490
      51App    5.619517    90Ap     5.619896    91Ap     5.620963
      52App    5.621170    92Ap     5.621747    53App    5.622007
      54App    5.622478    93Ap     5.623134    94Ap     5.623777
      95Ap     5.624179    55App    5.625199    56App    5.625435
      96Ap     5.628293    97Ap     5.629012    98Ap     5.642319
      57App    5.644761    58App    5.645040    99Ap     5.646444
      59App    5.647013   100Ap     5.647592    60App    5.648104
     101Ap     5.649310   102Ap     5.651174   103Ap    33.456440
     104Ap    33.790415   105Ap    33.792454   106Ap   110.858066
     107Ap   110.960523   108Ap   110.970083

    Final Occupation by Irrep:
             Ap   App
    DOCC [    19,    9 ]
    SOCC [     1,    0 ]

  @DF-UKS Final Energy:  -441.09284813808870

   => Energetics <=

    Nuclear Repulsion Energy =            213.1376571994887854
    One-Electron Energy =               -1209.4788719770017451
    Two-Electron Energy =                 597.7753525804865831
    DFT Exchange-Correlation Energy =     -42.5263895110621633
    Empirical Dispersion Energy =          -0.0005964300000000
    VV10 Nonlocal Energy =                  0.0000000000000000
    Total Energy =                       -441.0928481380885273

  UHF NO Occupations:
  HONO-2 :   18 Ap 1.9986252
  HONO-1 :   19 Ap 1.9958524
  HONO-0 :   20 Ap 1.0000000
  LUNO+0 :   21 Ap 0.0041476
  LUNO+1 :   22 Ap 0.0013748
  LUNO+2 :   23 Ap 0.0003692
  LUNO+3 :   10App 0.0003569

Computation Completed

Properties will be evaluated at   0.000000,   0.000000,   0.000000 [a0]

Properties computed using the SCF density matrix

  Nuclear Dipole Moment: [e a0]
     X:     0.0000      Y:     0.0000      Z:    -0.0000

  Electronic Dipole Moment: [e a0]
     X:    -0.0014      Y:     0.0000      Z:    -0.4802

  Dipole Moment: [e a0]
     X:    -0.0014      Y:     0.0000      Z:    -0.4802     Total:     0.4803

  Dipole Moment: [D]
     X:    -0.0034      Y:     0.0000      Z:    -1.2207     Total:     1.2207

*** tstop() called on compute347.bc4.acrc.priv at Fri Nov  5 09:45:52 2021
Module time:
	user time   =     546.30 seconds =       9.10 minutes
	system time =      16.84 seconds =       0.28 minutes
	total time  =         26 seconds =       0.43 minutes
Total time:
	user time   =   27594.70 seconds =     459.91 minutes
	system time =     399.16 seconds =       6.65 minutes
	total time  =       3872 seconds =      64.53 minutes

*** tstart() called on compute347.bc4.acrc.priv
*** at Fri Nov  5 09:45:52 2021

         ------------------------------------------------------------
                                   SCF GRAD
                          Rob Parrish, Justin Turney,
                       Andy Simmonett, and Alex Sokolov
         ------------------------------------------------------------

  ==> Geometry <==

    Molecular point group: cs
    Full point group: Cs

    Geometry (in Angstrom), charge = 0, multiplicity = 2:

       Center              X                  Y                   Z               Mass
    ------------   -----------------  -----------------  -----------------  -----------------
         AG          -0.000142949883     0.000000000000     1.602472708051   106.905091600000
         AG           1.301898725523     0.000000000000    -0.801368326193   106.905091600000
         AG          -1.301755775640     0.000000000000    -0.801104381858   106.905091600000

  Nuclear repulsion =  213.137657199488785

  ==> Basis Set <==

  Basis Set: DEF2-TZVPPD
    Blend: DEF2-TZVPPD
    Number of shells: 48
    Number of basis functions: 168
    Number of Cartesian functions: 213
    Spherical Harmonics?: true
    Max angular momentum: 4

  Core potential: DEF2-TZVPPD
    Number of shells: 12
    Number of ECP primitives: 42
    Number of ECP core electrons: 84
    Max angular momentum: 3

  ==> DFJKGrad: Density-Fitted SCF Gradients <==

    Gradient:                    1
    J tasked:                  Yes
    K tasked:                   No
    wK tasked:                  No
    OpenMP threads:             28
    Integrals threads:          28
    Memory [MiB]:            85830
    Schwarz Cutoff:          1E-12
    Fitting Condition:       1E-10

   => Auxiliary Basis Set <=

  Basis Set: (DEF2-TZVPPD AUX)
    Blend: DEF2-UNIVERSAL-JKFIT
    Number of shells: 147
    Number of basis functions: 765
    Number of Cartesian functions: 1152
    Spherical Harmonics?: true
    Max angular momentum: 6

  ==> DFT Potential <==

   => Composite Functional: SCAN-D3BJ <=

    SCAN Meta-GGA XC Functional
(10.1103/PhysRevLett.115.036402)
    J. Sun, A. Ruzsinszky, J. P. Perdew  Phys. Rev. Lett. 115, 036402, 2015

    Deriv               =              1
    GGA                 =           TRUE
    Meta                =           TRUE

    Exchange Hybrid     =          FALSE
    MP2 Hybrid          =          FALSE

   => Exchange Functionals <=

    1.0000   XC_MGGA_X_SCAN

   => Correlation Functionals <=

    1.0000   XC_MGGA_C_SCAN

   => LibXC Density Thresholds  <==

    XC_MGGA_C_SCAN:  1.00E-15
    XC_MGGA_X_SCAN:  1.00E-15

   => Molecular Quadrature <=

    Radial Scheme          =       TREUTLER
    Pruning Scheme         =           NONE
    Nuclear Scheme         =       TREUTLER

    BS radius alpha        =              1
    Pruning alpha          =              1
    Radial Points          =             75
    Spherical Points       =            302
    Total Points           =          62929
    Total Blocks           =            584
    Max Points             =            256
    Max Functions          =            165
    Weights Tolerance      =       1.00E-15

  -Total Gradient:
     Atom            X                  Y                   Z
    ------   -----------------  -----------------  -----------------
       1       -0.000056214835     0.000000000000    -0.089804898937
       2       -0.127011692482     0.000000000000     0.044909000910
       3        0.127077577246     0.000000000000     0.045044242692

*** tstop() called on compute347.bc4.acrc.priv at Fri Nov  5 09:46:03 2021
Module time:
	user time   =      96.18 seconds =       1.60 minutes
	system time =       3.23 seconds =       0.05 minutes
	total time  =         11 seconds =       0.18 minutes
Total time:
	user time   =   27694.08 seconds =     461.57 minutes
	system time =     402.53 seconds =       6.71 minutes
	total time  =       3883 seconds =      64.72 minutes

  ==> Adding ECP gradient terms (computed numerically) <==

  -ECP Gradient:
     Atom            X                  Y                   Z
    ------   -----------------  -----------------  -----------------
       1        0.000069355354     0.000000000000     0.089811847997
       2        0.126988281496     0.000000000000    -0.044844891889
       3       -0.127057636092     0.000000000000    -0.044966956144

  -Total Gradient:
     Atom            X                  Y                   Z
    ------   -----------------  -----------------  -----------------
       1        0.000013140519     0.000000000000     0.000006949060
       2       -0.000023410985     0.000000000000     0.000064109021
       3        0.000019941154     0.000000000000     0.000077286548

         ----------------------------------------------------------
                                   FINDIF
                     R. A. King and Jonathon Misiewicz
         ---------------------------------------------------------

  Computing second-derivative from gradients using projected,
  symmetry-adapted, cartesian coordinates.

  6 gradients passed in, including the reference geometry.
  Generating complete list of displacements from unique ones.

    Operation 2 takes plus displacements of irrep B1 to minus ones.

-------------------------------------------------------------

  ==> Harmonic Vibrational Analysis <==

  non-mass-weighted Hessian:       Symmetric? True   Hermitian? True   Lin Dep Dim?  6 (0)
  projection of translations (True) and rotations (True) removed 6 degrees of freedom (6)
  total projector:                 Symmetric? True   Hermitian? True   Lin Dep Dim?  6 (6)
  mass-weighted Hessian:           Symmetric? True   Hermitian? True   Lin Dep Dim?  6 (0)
  pre-proj  low-frequency mode:    0.0000i [cm^-1]
  pre-proj  low-frequency mode:    0.0000i [cm^-1]
  pre-proj  low-frequency mode:    0.0000i [cm^-1]
  pre-proj  low-frequency mode:    0.0000i [cm^-1]
  pre-proj  low-frequency mode:    0.0000  [cm^-1]
  pre-proj  low-frequency mode:    0.0000  [cm^-1]
  pre-proj  low-frequency mode:    0.0000  [cm^-1]
  pre-proj  all modes:['27.8163i' '0.0000i' '0.0000i' '0.0000i' '0.0000' '0.0000' '0.0000'
 '119.3933' '173.1887']
  projected mass-weighted Hessian: Symmetric? True   Hermitian? True   Lin Dep Dim?  6 (6)
  post-proj low-frequency mode:   27.8163i [cm^-1] (V)
  post-proj low-frequency mode:    0.0000i [cm^-1] (TR)
  post-proj low-frequency mode:    0.0000i [cm^-1] (TR)
  post-proj low-frequency mode:    0.0000i [cm^-1] (TR)
  post-proj low-frequency mode:    0.0000  [cm^-1] (TR)
  post-proj low-frequency mode:    0.0000  [cm^-1] (TR)
  post-proj low-frequency mode:    0.0000  [cm^-1] (TR)
  post-proj  all modes:['27.8163i' '0.0000i' '0.0000i' '0.0000i' '0.0000' '0.0000' '0.0000'
 '119.3933' '173.1887']

  Vibration                       1                   8                   9
  Freq [cm^-1]                 27.8163i            119.3933            173.1887
  Irrep                           B1                  A1                  A1
  Reduced mass [u]             106.9051            106.9051            106.9051
  Force const [mDyne/A]        -0.0487              0.8979              1.8892
  Turning point v=0 [a0]        0.0000              0.0971              0.0806
  RMS dev v=0 [a0 u^1/2]        0.0000              0.7101              0.5896
  Char temp [K]                 0.0000             171.7804            249.1800
  ----------------------------------------------------------------------------------
      1   AG               0.56  0.00 -0.00    0.00  0.00  0.76   -0.00 -0.00  0.31
      2   AG              -0.28 -0.00  0.52   -0.27 -0.00 -0.38    0.65  0.00 -0.15
      3   AG              -0.28 -0.00 -0.52    0.27  0.00 -0.38   -0.65 -0.00 -0.15

  ==> Thermochemistry Components <==

  Entropy, S
    Electronic S            1.377 [cal/(mol K)]        5.763 [J/(mol K)]       0.00219507 [mEh/K] (multiplicity = 2)
    Translational S        43.192 [cal/(mol K)]      180.714 [J/(mol K)]       0.06883047 [mEh/K] (mol. weight = 320.7153 [u], P = 101325.00 [Pa])
    Rotational S           28.666 [cal/(mol K)]      119.937 [J/(mol K)]       0.04568174 [mEh/K] (symmetry no. = 2)
    Vibrational S           5.511 [cal/(mol K)]       23.057 [J/(mol K)]       0.00878195 [mEh/K]
  Total S                  78.746 [cal/(mol K)]      329.472 [J/(mol K)]       0.12548924 [mEh/K]
  Correction S              0.000 [cal/(mol K)]        0.000 [J/(mol K)]       0.00000000 [mEh/K]

  Constant volume heat capacity, Cv
    Electronic Cv           0.000 [cal/(mol K)]        0.000 [J/(mol K)]       0.00000000 [mEh/K]
    Translational Cv        2.981 [cal/(mol K)]       12.472 [J/(mol K)]       0.00475022 [mEh/K]
    Rotational Cv           2.981 [cal/(mol K)]       12.472 [J/(mol K)]       0.00475022 [mEh/K]
    Vibrational Cv          3.809 [cal/(mol K)]       15.935 [J/(mol K)]       0.00606939 [mEh/K]
  Total Cv                  9.770 [cal/(mol K)]       40.879 [J/(mol K)]       0.01556982 [mEh/K]
  Correction Cv             0.000 [cal/(mol K)]        0.000 [J/(mol K)]       0.00000000 [mEh/K]

  Constant pressure heat capacity, Cp
    Electronic Cp           0.000 [cal/(mol K)]        0.000 [J/(mol K)]       0.00000000 [mEh/K]
    Translational Cp        4.968 [cal/(mol K)]       20.786 [J/(mol K)]       0.00791703 [mEh/K]
    Rotational Cp           2.981 [cal/(mol K)]       12.472 [J/(mol K)]       0.00475022 [mEh/K]
    Vibrational Cp          3.809 [cal/(mol K)]       15.935 [J/(mol K)]       0.00606939 [mEh/K]
  Total Cp                 11.757 [cal/(mol K)]       49.193 [J/(mol K)]       0.01873663 [mEh/K]
  Correction Cp             0.000 [cal/(mol K)]        0.000 [J/(mol K)]       0.00000000 [mEh/K]

  ==> Thermochemistry Energy Analysis <==

  Raw electronic energy, E0
  Total E0, Electronic energy at well bottom at 0 [K]                 -441.09284816 [Eh]

  Zero-point energy, ZPE_vib = Sum_i nu_i / 2
    Electronic ZPE          0.000 [kcal/mol]        0.000 [kJ/mol]       0.00000000 [Eh]
    Translational ZPE       0.000 [kcal/mol]        0.000 [kJ/mol]       0.00000000 [Eh]
    Rotational ZPE          0.000 [kcal/mol]        0.000 [kJ/mol]       0.00000000 [Eh]
    Vibrational ZPE         0.418 [kcal/mol]        1.750 [kJ/mol]       0.00066655 [Eh]         146.291 [cm^-1]
  Correction ZPE            0.418 [kcal/mol]        1.750 [kJ/mol]       0.00066655 [Eh]         146.291 [cm^-1]
  Total ZPE, Electronic energy at 0 [K]                               -441.09218161 [Eh]

  Thermal Energy, E (includes ZPE)
    Electronic E            0.000 [kcal/mol]        0.000 [kJ/mol]       0.00000000 [Eh]
    Translational E         0.889 [kcal/mol]        3.718 [kJ/mol]       0.00141628 [Eh]
    Rotational E            0.889 [kcal/mol]        3.718 [kJ/mol]       0.00141628 [Eh]
    Vibrational E           1.235 [kcal/mol]        5.169 [kJ/mol]       0.00196867 [Eh]
  Correction E              3.013 [kcal/mol]       12.606 [kJ/mol]       0.00480123 [Eh]
  Total E, Electronic energy at  298.15 [K]                           -441.08804693 [Eh]

  Enthalpy, H_trans = E_trans + k_B * T
    Electronic H            0.000 [kcal/mol]        0.000 [kJ/mol]       0.00000000 [Eh]
    Translational H         1.481 [kcal/mol]        6.197 [kJ/mol]       0.00236046 [Eh]
    Rotational H            0.889 [kcal/mol]        3.718 [kJ/mol]       0.00141628 [Eh]
    Vibrational H           1.235 [kcal/mol]        5.169 [kJ/mol]       0.00196867 [Eh]
  Correction H              3.605 [kcal/mol]       15.085 [kJ/mol]       0.00574541 [Eh]
  Total H, Enthalpy at  298.15 [K]                                    -441.08710274 [Eh]

  Gibbs free energy, G = H - T * S
    Electronic G           -0.411 [kcal/mol]       -1.718 [kJ/mol]      -0.00065446 [Eh]
    Translational G       -11.396 [kcal/mol]      -47.683 [kJ/mol]      -0.01816134 [Eh]
    Rotational G           -7.658 [kcal/mol]      -32.041 [kJ/mol]      -0.01220374 [Eh]
    Vibrational G          -0.408 [kcal/mol]       -1.706 [kJ/mol]      -0.00064967 [Eh]
  Correction G            -19.873 [kcal/mol]      -83.147 [kJ/mol]      -0.03166920 [Eh]
  Total G, Free enthalpy at  298.15 [K]                               -441.12451736 [Eh]

*** Psi4 exiting successfully. Buy a developer a beer!
