                               Psi4 1.4.1 release

  ==> Input File <==

--------------------------------------------------------------------------
memory 120 GB

molecule {
0 1
Au       0.000000    0.000000    0.196853
F        0.000000    0.000000   -1.727931
 }

set dynamic_level 1
set basis Def2-TZVPPD

optimize("SCAN-D3BJ")
frequencies("SCAN-D3BJ")
--------------------------------------------------------------------------

    Molecular point group: c2v
  Charge       = 0
  Multiplicity = 1
  Basis Set: DEF2-TZVPPD
    Blend: DEF2-TZVPPD
  Basis Set: (DEF2-TZVPPD AUX)
    Blend: DEF2-UNIVERSAL-JKFIT
  @DF-RKS Final Energy:  -235.59299895002337
    Total Energy =                       -235.5929989500233717
    Molecular point group: c2v
  Basis Set: DEF2-TZVPPD
    Blend: DEF2-TZVPPD
  Basis Set: (DEF2-TZVPPD AUX)
    Blend: DEF2-UNIVERSAL-JKFIT
  Basis Set: DEF2-TZVPPD
    Blend: DEF2-TZVPPD
  Basis Set: (DEF2-TZVPPD AUX)
    Blend: DEF2-UNIVERSAL-JKFIT
  @DF-RKS Final Energy:  -235.59286009462070
    Total Energy =                       -235.5928600946207041
  Basis Set: DEF2-TZVPPD
    Blend: DEF2-TZVPPD
  Basis Set: (DEF2-TZVPPD AUX)
    Blend: DEF2-UNIVERSAL-JKFIT
  Basis Set: DEF2-TZVPPD
    Blend: DEF2-TZVPPD
  @DF-RKS Final Energy:  -235.59245166680881
    Total Energy =                       -235.5924516668088131
  @DF-RKS Final Energy:  -235.59241321407654
    Total Energy =                       -235.5924132140765437
  **** Optimization is complete! (in 4 steps) ****
    Final optimized geometry and variables:
  @DF-RKS Final Energy:  -235.59241321407634
    Total Energy =                       -235.5924132140763447
  @DF-RKS Final Energy:  -235.59241321407637
    Total Energy =                       -235.5924132140763732
  Basis Set: (DEF2-TZVPPD AUX)
    Blend: DEF2-UNIVERSAL-JKFIT
  Basis Set: DEF2-TZVPPD
    Blend: DEF2-TZVPPD
  Basis Set: (DEF2-TZVPPD AUX)
    Blend: DEF2-UNIVERSAL-JKFIT
  @DF-RKS Final Energy:  -235.59243096274753
    Total Energy =                       -235.5924309627475282
  Basis Set: DEF2-TZVPPD
    Blend: DEF2-TZVPPD
  Basis Set: (DEF2-TZVPPD AUX)
    Blend: DEF2-UNIVERSAL-JKFIT
    Molecular point group: c2v
  Charge       = 0
  Multiplicity = 1
  Basis Set: DEF2-TZVPPD
    Blend: DEF2-TZVPPD
  Basis Set: (DEF2-TZVPPD AUX)
    Blend: DEF2-UNIVERSAL-JKFIT

    Orbital Energies [Eh]
    ---------------------

    Doubly Occupied:

       1A1   -24.454214     2A1    -4.146175     3A1    -2.339982
       1B2    -2.321356     1B1    -2.321356     4A1    -1.067357
       5A1    -0.415162     2B2    -0.359757     2B1    -0.359757
       1A2    -0.298529     6A1    -0.298524     3B2    -0.276498
       3B1    -0.276498     7A1    -0.271723

  @DF-RKS Final Energy:  -235.59239523389061

   => Energetics <=

    Nuclear Repulsion Energy =             46.1904640669282713
    One-Electron Energy =                -470.3897338222039934
    Two-Electron Energy =                 211.8826276044493397
    DFT Exchange-Correlation Energy =     -23.2756643130642153
    Empirical Dispersion Energy =          -0.0000887700000000
    VV10 Nonlocal Energy =                  0.0000000000000000
    Total Energy =                       -235.5923952338906133

  Dipole Moment: [D]
     X:     0.0000      Y:     0.0000      Z:     3.9114     Total:     3.9114

    Molecular point group: c2v

    Geometry (in Angstrom), charge = 0, multiplicity = 1:

       Center              X                  Y                   Z               Mass
    ------------   -----------------  -----------------  -----------------  -----------------
         AU           0.000000000000     0.000000000000     0.172337067984   196.966568790000
         F            0.000000000000     0.000000000000    -1.786710212716    18.998403162730

  Basis Set: DEF2-TZVPPD
    Blend: DEF2-TZVPPD
  Basis Set: (DEF2-TZVPPD AUX)
    Blend: DEF2-UNIVERSAL-JKFIT

  -Total Gradient:
     Atom            X                  Y                   Z
    ------   -----------------  -----------------  -----------------
       1        0.000000000000    -0.000000000000     0.016909659588
       2        0.000000000000    -0.000000000000     0.016590107695

  Vibration                       6
  Freq [cm^-1]                 513.1075
  Irrep                           A1
  Reduced mass [u]             20.6389
  Force const [mDyne/A]         3.2015

  ==> Thermochemistry Components <==

  Entropy, S
    Electronic S            0.000 [cal/(mol K)]        0.000 [J/(mol K)]       0.00000000 [mEh/K] (multiplicity = 1)
    Translational S        42.013 [cal/(mol K)]      175.783 [J/(mol K)]       0.06695206 [mEh/K] (mol. weight = 215.9650 [u], P = 101325.00 [Pa])
    Rotational S           15.312 [cal/(mol K)]       64.067 [J/(mol K)]       0.02440198 [mEh/K] (symmetry no. = 1)
    Vibrational S           0.626 [cal/(mol K)]        2.620 [J/(mol K)]       0.00099783 [mEh/K]
  Total S                  57.952 [cal/(mol K)]      242.470 [J/(mol K)]       0.09235188 [mEh/K]
  Correction S              0.000 [cal/(mol K)]        0.000 [J/(mol K)]       0.00000000 [mEh/K]

  Constant volume heat capacity, Cv
    Electronic Cv           0.000 [cal/(mol K)]        0.000 [J/(mol K)]       0.00000000 [mEh/K]
    Translational Cv        2.981 [cal/(mol K)]       12.472 [J/(mol K)]       0.00475022 [mEh/K]
    Rotational Cv           1.987 [cal/(mol K)]        8.314 [J/(mol K)]       0.00316681 [mEh/K]
    Vibrational Cv          1.221 [cal/(mol K)]        5.108 [J/(mol K)]       0.00194571 [mEh/K]
  Total Cv                  6.189 [cal/(mol K)]       25.895 [J/(mol K)]       0.00986274 [mEh/K]
  Correction Cv             0.000 [cal/(mol K)]        0.000 [J/(mol K)]       0.00000000 [mEh/K]

  Constant pressure heat capacity, Cp
    Electronic Cp           0.000 [cal/(mol K)]        0.000 [J/(mol K)]       0.00000000 [mEh/K]
    Translational Cp        4.968 [cal/(mol K)]       20.786 [J/(mol K)]       0.00791703 [mEh/K]
    Rotational Cp           1.987 [cal/(mol K)]        8.314 [J/(mol K)]       0.00316681 [mEh/K]
    Vibrational Cp          1.221 [cal/(mol K)]        5.108 [J/(mol K)]       0.00194571 [mEh/K]
  Total Cp                  8.176 [cal/(mol K)]       34.209 [J/(mol K)]       0.01302955 [mEh/K]
  Correction Cp             0.000 [cal/(mol K)]        0.000 [J/(mol K)]       0.00000000 [mEh/K]

  ==> Thermochemistry Energy Analysis <==

  Raw electronic energy, E0
  Total E0, Electronic energy at well bottom at 0 [K]                 -235.59241321 [Eh]

  Zero-point energy, ZPE_vib = Sum_i nu_i / 2
    Electronic ZPE          0.000 [kcal/mol]        0.000 [kJ/mol]       0.00000000 [Eh]
    Translational ZPE       0.000 [kcal/mol]        0.000 [kJ/mol]       0.00000000 [Eh]
    Rotational ZPE          0.000 [kcal/mol]        0.000 [kJ/mol]       0.00000000 [Eh]
    Vibrational ZPE         0.734 [kcal/mol]        3.069 [kJ/mol]       0.00116894 [Eh]         256.554 [cm^-1]
  Correction ZPE            0.734 [kcal/mol]        3.069 [kJ/mol]       0.00116894 [Eh]         256.554 [cm^-1]
  Total ZPE, Electronic energy at 0 [K]                               -235.59124427 [Eh]

  Thermal Energy, E (includes ZPE)
    Electronic E            0.000 [kcal/mol]        0.000 [kJ/mol]       0.00000000 [Eh]
    Translational E         0.889 [kcal/mol]        3.718 [kJ/mol]       0.00141628 [Eh]
    Rotational E            0.592 [kcal/mol]        2.479 [kJ/mol]       0.00094418 [Eh]
    Vibrational E           0.868 [kcal/mol]        3.632 [kJ/mol]       0.00138353 [Eh]
  Correction E              2.349 [kcal/mol]        9.830 [kJ/mol]       0.00374400 [Eh]
  Total E, Electronic energy at  298.15 [K]                           -235.58866922 [Eh]

  Enthalpy, H_trans = E_trans + k_B * T
    Electronic H            0.000 [kcal/mol]        0.000 [kJ/mol]       0.00000000 [Eh]
    Translational H         1.481 [kcal/mol]        6.197 [kJ/mol]       0.00236046 [Eh]
    Rotational H            0.592 [kcal/mol]        2.479 [kJ/mol]       0.00094418 [Eh]
    Vibrational H           0.868 [kcal/mol]        3.632 [kJ/mol]       0.00138353 [Eh]
  Correction H              2.942 [kcal/mol]       12.309 [kJ/mol]       0.00468818 [Eh]
  Total H, Enthalpy at  298.15 [K]                                    -235.58772503 [Eh]

  Gibbs free energy, G = H - T * S
    Electronic G            0.000 [kcal/mol]        0.000 [kJ/mol]       0.00000000 [Eh]
    Translational G       -11.045 [kcal/mol]      -46.212 [kJ/mol]      -0.01760129 [Eh]
    Rotational G           -3.973 [kcal/mol]      -16.623 [kJ/mol]      -0.00633127 [Eh]
    Vibrational G           0.681 [kcal/mol]        2.851 [kJ/mol]       0.00108603 [Eh]
  Correction G            -14.336 [kcal/mol]      -59.984 [kJ/mol]      -0.02284653 [Eh]
  Total G, Free enthalpy at  298.15 [K]                               -235.61525975 [Eh]

*** Psi4 exiting successfully. Buy a developer a beer!
