                               Psi4 1.4.1 release

  ==> Input File <==

--------------------------------------------------------------------------
memory 120 GB

molecule {
0 1
Au       0.000000    0.000000    1.239541
Au       0.000000    0.000000   -1.239541
 }

set dynamic_level 1
set basis Def2-TZVPPD

optimize("SCAN-D3BJ")
frequencies("SCAN-D3BJ")
--------------------------------------------------------------------------

    Molecular point group: d2h
  Charge       = 0
  Multiplicity = 1
  Basis Set: DEF2-TZVPPD
    Blend: DEF2-TZVPPD
  Basis Set: (DEF2-TZVPPD AUX)
    Blend: DEF2-UNIVERSAL-JKFIT
  @DF-RKS Final Energy:  -271.56452384215839
    Total Energy =                       -271.5645238421583940
    Molecular point group: d2h
  Basis Set: DEF2-TZVPPD
    Blend: DEF2-TZVPPD
  Basis Set: (DEF2-TZVPPD AUX)
    Blend: DEF2-UNIVERSAL-JKFIT
  Basis Set: DEF2-TZVPPD
    Blend: DEF2-TZVPPD
  Basis Set: (DEF2-TZVPPD AUX)
    Blend: DEF2-UNIVERSAL-JKFIT
  @DF-RKS Final Energy:  -271.56450049132906
    Total Energy =                       -271.5645004913290563
  Basis Set: DEF2-TZVPPD
    Blend: DEF2-TZVPPD
  Basis Set: (DEF2-TZVPPD AUX)
    Blend: DEF2-UNIVERSAL-JKFIT
  Basis Set: DEF2-TZVPPD
    Blend: DEF2-TZVPPD
  @DF-RKS Final Energy:  -271.56451972131134
    Total Energy =                       -271.5645197213113420
  **** Optimization is complete! (in 3 steps) ****
    Final optimized geometry and variables:
  @DF-RKS Final Energy:  -271.56451972131146
    Total Energy =                       -271.5645197213114557
  @DF-RKS Final Energy:  -271.56451972131157
    Total Energy =                       -271.5645197213115694
  Basis Set: (DEF2-TZVPPD AUX)
    Blend: DEF2-UNIVERSAL-JKFIT
  Basis Set: DEF2-TZVPPD
    Blend: DEF2-TZVPPD
  Basis Set: (DEF2-TZVPPD AUX)
    Blend: DEF2-UNIVERSAL-JKFIT
  @DF-RKS Final Energy:  -271.56451886721010
    Total Energy =                       -271.5645188672100971
  Basis Set: DEF2-TZVPPD
    Blend: DEF2-TZVPPD
  Basis Set: (DEF2-TZVPPD AUX)
    Blend: DEF2-UNIVERSAL-JKFIT
    Molecular point group: d2h
  Charge       = 0
  Multiplicity = 1
  Basis Set: DEF2-TZVPPD
    Blend: DEF2-TZVPPD
  Basis Set: (DEF2-TZVPPD AUX)
    Blend: DEF2-UNIVERSAL-JKFIT

    Orbital Energies [Eh]
    ---------------------

    Doubly Occupied:

       1Ag    -4.102599     1B1u   -4.101791     2Ag    -2.297502
       2B1u   -2.284822     1B3u   -2.279389     1B2u   -2.279389
       1B2g   -2.278139     1B3g   -2.278139     3Ag    -0.353420
       2B2u   -0.307711     2B3u   -0.307711     4Ag    -0.267406
       1B1g   -0.267340     3B1u   -0.253528     1Au    -0.253462
       5Ag    -0.247494     2B3g   -0.241607     2B2g   -0.241607
       4B1u   -0.238098

  @DF-RKS Final Energy:  -271.56452055572771

   => Energetics <=

    Nuclear Repulsion Energy =             77.4246885174104591
    One-Electron Energy =                -632.0987808121323042
    Two-Electron Energy =                 308.8569771303197058
    DFT Exchange-Correlation Energy =     -25.7471995013255288
    Empirical Dispersion Energy =          -0.0002058900000000
    VV10 Nonlocal Energy =                  0.0000000000000000
    Total Energy =                       -271.5645205557277109

  Dipole Moment: [D]
     X:     0.0000      Y:     0.0000      Z:     0.0000     Total:     0.0000

    Molecular point group: d2h

    Geometry (in Angstrom), charge = 0, multiplicity = 1:

       Center              X                  Y                   Z               Mass
    ------------   -----------------  -----------------  -----------------  -----------------
         AU           0.000000000000     0.000000000000     1.233669625993   196.966568790000
         AU           0.000000000000     0.000000000000    -1.233669625993   196.966568790000

  Basis Set: DEF2-TZVPPD
    Blend: DEF2-TZVPPD
  Basis Set: (DEF2-TZVPPD AUX)
    Blend: DEF2-UNIVERSAL-JKFIT

  -Total Gradient:
     Atom            X                  Y                   Z
    ------   -----------------  -----------------  -----------------
       1       -0.000000000000     0.000000000000     0.000098607538
       2       -0.000000000000     0.000000000000    -0.000098607538

  Vibration                       6
  Freq [cm^-1]                 221.3836
  Irrep                           Ag
  Reduced mass [u]             196.9666
  Force const [mDyne/A]         5.6877

  ==> Thermochemistry Components <==

  Entropy, S
    Electronic S            0.000 [cal/(mol K)]        0.000 [J/(mol K)]       0.00000000 [mEh/K] (multiplicity = 1)
    Translational S        43.805 [cal/(mol K)]      183.279 [J/(mol K)]       0.06980725 [mEh/K] (mol. weight = 393.9331 [u], P = 101325.00 [Pa])
    Rotational S           18.306 [cal/(mol K)]       76.591 [J/(mol K)]       0.02917204 [mEh/K] (symmetry no. = 2)
    Vibrational S           1.948 [cal/(mol K)]        8.149 [J/(mol K)]       0.00310393 [mEh/K]
  Total S                  64.058 [cal/(mol K)]      268.019 [J/(mol K)]       0.10208321 [mEh/K]
  Correction S              0.000 [cal/(mol K)]        0.000 [J/(mol K)]       0.00000000 [mEh/K]

  Constant volume heat capacity, Cv
    Electronic Cv           0.000 [cal/(mol K)]        0.000 [J/(mol K)]       0.00000000 [mEh/K]
    Translational Cv        2.981 [cal/(mol K)]       12.472 [J/(mol K)]       0.00475022 [mEh/K]
    Rotational Cv           1.987 [cal/(mol K)]        8.314 [J/(mol K)]       0.00316681 [mEh/K]
    Vibrational Cv          1.809 [cal/(mol K)]        7.567 [J/(mol K)]       0.00288205 [mEh/K]
  Total Cv                  6.777 [cal/(mol K)]       28.353 [J/(mol K)]       0.01079908 [mEh/K]
  Correction Cv             0.000 [cal/(mol K)]        0.000 [J/(mol K)]       0.00000000 [mEh/K]

  Constant pressure heat capacity, Cp
    Electronic Cp           0.000 [cal/(mol K)]        0.000 [J/(mol K)]       0.00000000 [mEh/K]
    Translational Cp        4.968 [cal/(mol K)]       20.786 [J/(mol K)]       0.00791703 [mEh/K]
    Rotational Cp           1.987 [cal/(mol K)]        8.314 [J/(mol K)]       0.00316681 [mEh/K]
    Vibrational Cp          1.809 [cal/(mol K)]        7.567 [J/(mol K)]       0.00288205 [mEh/K]
  Total Cp                  8.764 [cal/(mol K)]       36.667 [J/(mol K)]       0.01396589 [mEh/K]
  Correction Cp             0.000 [cal/(mol K)]        0.000 [J/(mol K)]       0.00000000 [mEh/K]

  ==> Thermochemistry Energy Analysis <==

  Raw electronic energy, E0
  Total E0, Electronic energy at well bottom at 0 [K]                 -271.56451972 [Eh]

  Zero-point energy, ZPE_vib = Sum_i nu_i / 2
    Electronic ZPE          0.000 [kcal/mol]        0.000 [kJ/mol]       0.00000000 [Eh]
    Translational ZPE       0.000 [kcal/mol]        0.000 [kJ/mol]       0.00000000 [Eh]
    Rotational ZPE          0.000 [kcal/mol]        0.000 [kJ/mol]       0.00000000 [Eh]
    Vibrational ZPE         0.316 [kcal/mol]        1.324 [kJ/mol]       0.00050435 [Eh]         110.692 [cm^-1]
  Correction ZPE            0.316 [kcal/mol]        1.324 [kJ/mol]       0.00050435 [Eh]         110.692 [cm^-1]
  Total ZPE, Electronic energy at 0 [K]                               -271.56401537 [Eh]

  Thermal Energy, E (includes ZPE)
    Electronic E            0.000 [kcal/mol]        0.000 [kJ/mol]       0.00000000 [Eh]
    Translational E         0.889 [kcal/mol]        3.718 [kJ/mol]       0.00141628 [Eh]
    Rotational E            0.592 [kcal/mol]        2.479 [kJ/mol]       0.00094418 [Eh]
    Vibrational E           0.648 [kcal/mol]        2.710 [kJ/mol]       0.00103232 [Eh]
  Correction E              2.129 [kcal/mol]        8.908 [kJ/mol]       0.00339278 [Eh]
  Total E, Electronic energy at  298.15 [K]                           -271.56112694 [Eh]

  Enthalpy, H_trans = E_trans + k_B * T
    Electronic H            0.000 [kcal/mol]        0.000 [kJ/mol]       0.00000000 [Eh]
    Translational H         1.481 [kcal/mol]        6.197 [kJ/mol]       0.00236046 [Eh]
    Rotational H            0.592 [kcal/mol]        2.479 [kJ/mol]       0.00094418 [Eh]
    Vibrational H           0.648 [kcal/mol]        2.710 [kJ/mol]       0.00103232 [Eh]
  Correction H              2.721 [kcal/mol]       11.387 [kJ/mol]       0.00433697 [Eh]
  Total H, Enthalpy at  298.15 [K]                                    -271.56018275 [Eh]

  Gibbs free energy, G = H - T * S
    Electronic G            0.000 [kcal/mol]        0.000 [kJ/mol]       0.00000000 [Eh]
    Translational G       -11.579 [kcal/mol]      -48.447 [kJ/mol]      -0.01845257 [Eh]
    Rotational G           -4.865 [kcal/mol]      -20.357 [kJ/mol]      -0.00775346 [Eh]
    Vibrational G           0.067 [kcal/mol]        0.281 [kJ/mol]       0.00010689 [Eh]
  Correction G            -16.377 [kcal/mol]      -68.523 [kJ/mol]      -0.02609914 [Eh]
  Total G, Free enthalpy at  298.15 [K]                               -271.59061886 [Eh]

*** Psi4 exiting successfully. Buy a developer a beer!
