                               Psi4 1.4.1 release

  ==> Input File <==

--------------------------------------------------------------------------
memory 120 GB

molecule {
1 1
Au       0.000000    1.501400   -0.000000
Au       1.300251   -0.750700   -0.000000
Au      -1.300251   -0.750700   -0.000000
 }

set dynamic_level 1
set basis Def2-TZVPPD

optimize("SCAN-D3BJ")
frequencies("SCAN-D3BJ")
--------------------------------------------------------------------------

    Molecular point group: c2v
  Charge       = 1
  Multiplicity = 1
  Basis Set: DEF2-TZVPPD
    Blend: DEF2-TZVPPD
  Basis Set: (DEF2-TZVPPD AUX)
    Blend: DEF2-UNIVERSAL-JKFIT
  @DF-RKS Final Energy:  -407.09413625370507
    Total Energy =                       -407.0941362537050736
    Molecular point group: c2v
  Basis Set: DEF2-TZVPPD
    Blend: DEF2-TZVPPD
  Basis Set: (DEF2-TZVPPD AUX)
    Blend: DEF2-UNIVERSAL-JKFIT
  Basis Set: DEF2-TZVPPD
    Blend: DEF2-TZVPPD
  Basis Set: (DEF2-TZVPPD AUX)
    Blend: DEF2-UNIVERSAL-JKFIT
  @DF-RKS Final Energy:  -407.09417181815689
    Total Energy =                       -407.0941718181568945
  Basis Set: DEF2-TZVPPD
    Blend: DEF2-TZVPPD
  Basis Set: (DEF2-TZVPPD AUX)
    Blend: DEF2-UNIVERSAL-JKFIT
  Basis Set: DEF2-TZVPPD
    Blend: DEF2-TZVPPD
  @DF-RKS Final Energy:  -407.09417984756357
    Total Energy =                       -407.0941798475635096
  **** Optimization is complete! (in 3 steps) ****
    Final optimized geometry and variables:
  @DF-RKS Final Energy:  -407.09417984777218
    Total Energy =                       -407.0941798477721818
  @DF-RKS Final Energy:  -407.09417984777241
    Total Energy =                       -407.0941798477724660
  @DF-RKS Final Energy:  -407.09417938295240
    Total Energy =                       -407.0941793829524045
  @DF-RKS Final Energy:  -407.09418029374041
    Total Energy =                       -407.0941802937404077
  @DF-RKS Final Energy:  -407.09417925625422
    Total Energy =                       -407.0941792562542219
  Basis Set: (DEF2-TZVPPD AUX)
    Blend: DEF2-UNIVERSAL-JKFIT
  Basis Set: DEF2-TZVPPD
    Blend: DEF2-TZVPPD
  Basis Set: (DEF2-TZVPPD AUX)
    Blend: DEF2-UNIVERSAL-JKFIT
  @DF-RKS Final Energy:  -407.09418041460236
    Total Energy =                       -407.0941804146023628
  Basis Set: DEF2-TZVPPD
    Blend: DEF2-TZVPPD
  Basis Set: (DEF2-TZVPPD AUX)
    Blend: DEF2-UNIVERSAL-JKFIT
    Molecular point group: cs
  Charge       = 1
  Multiplicity = 1
  Basis Set: DEF2-TZVPPD
    Blend: DEF2-TZVPPD
  Basis Set: (DEF2-TZVPPD AUX)
    Blend: DEF2-UNIVERSAL-JKFIT

    Orbital Energies [Eh]
    ---------------------

    Doubly Occupied:

       1Ap    -4.315694     2Ap    -4.315070     3Ap    -4.315056
       4Ap    -2.508941     5Ap    -2.501679     6Ap    -2.501671
       7Ap    -2.496045     8Ap    -2.496033     9Ap    -2.494132
       1App   -2.491436     2App   -2.490352     3App   -2.490330
      10Ap    -0.584752    11Ap    -0.539587    12Ap    -0.539526
       4App   -0.525372    13Ap    -0.506828     5App   -0.492915
       6App   -0.492858    14Ap    -0.464979    15Ap    -0.463380
      16Ap    -0.463359    17Ap    -0.456353    18Ap    -0.456343
       7App   -0.453799     8App   -0.453411     9App   -0.453402
      19Ap    -0.429157

  @DF-RKS Final Energy:  -407.09432158338285

   => Energetics <=

    Nuclear Repulsion Energy =            221.6503007504390155
    One-Electron Energy =               -1147.0374977913897965
    Two-Electron Energy =                 556.7432047125682857
    DFT Exchange-Correlation Energy =     -38.4497139450003544
    Empirical Dispersion Energy =          -0.0006153100000000
    VV10 Nonlocal Energy =                  0.0000000000000000
    Total Energy =                       -407.0943215833828503

  Dipole Moment: [D]
     X:     0.0003      Y:     0.0000      Z:     0.0001     Total:     0.0004

    Molecular point group: cs

    Geometry (in Angstrom), charge = 1, multiplicity = 1:

       Center              X                  Y                   Z               Mass
    ------------   -----------------  -----------------  -----------------  -----------------
         AU          -0.000108833617     0.000000000000     1.492972530271   196.966568790000
         AU           1.292701846620     0.000000000000    -0.746580540031   196.966568790000
         AU          -1.292593013003     0.000000000000    -0.746391990241   196.966568790000

  Basis Set: DEF2-TZVPPD
    Blend: DEF2-TZVPPD
  Basis Set: (DEF2-TZVPPD AUX)
    Blend: DEF2-UNIVERSAL-JKFIT

  -Total Gradient:
     Atom            X                  Y                   Z
    ------   -----------------  -----------------  -----------------
       1        0.000018085298     0.000000000000     0.000254125910
       2        0.000128441518     0.000000000000    -0.000181316388
       3       -0.000227282716     0.000000000000     0.000039803917

  Vibration                       7                   8                   9
  Freq [cm^-1]                 126.0158            164.2054            184.4198
  Irrep                           A1                  B1                  A1
  Reduced mass [u]             196.9666            196.9666            196.9666
  Force const [mDyne/A]         1.8429              3.1291              3.9469

  ==> Thermochemistry Components <==

  Entropy, S
    Electronic S            0.000 [cal/(mol K)]        0.000 [J/(mol K)]       0.00000000 [mEh/K] (multiplicity = 1)
    Translational S        45.013 [cal/(mol K)]      188.336 [J/(mol K)]       0.07173329 [mEh/K] (mol. weight = 590.8997 [u], P = 101325.00 [Pa])
    Rotational S           30.253 [cal/(mol K)]      126.579 [J/(mol K)]       0.04821150 [mEh/K] (symmetry no. = 2)
    Vibrational S           7.790 [cal/(mol K)]       32.593 [J/(mol K)]       0.01241407 [mEh/K]
  Total S                  83.056 [cal/(mol K)]      347.508 [J/(mol K)]       0.13235887 [mEh/K]
  Correction S              0.000 [cal/(mol K)]        0.000 [J/(mol K)]       0.00000000 [mEh/K]

  Constant volume heat capacity, Cv
    Electronic Cv           0.000 [cal/(mol K)]        0.000 [J/(mol K)]       0.00000000 [mEh/K]
    Translational Cv        2.981 [cal/(mol K)]       12.472 [J/(mol K)]       0.00475022 [mEh/K]
    Rotational Cv           2.981 [cal/(mol K)]       12.472 [J/(mol K)]       0.00475022 [mEh/K]
    Vibrational Cv          5.675 [cal/(mol K)]       23.742 [J/(mol K)]       0.00904300 [mEh/K]
  Total Cv                 11.636 [cal/(mol K)]       48.686 [J/(mol K)]       0.01854343 [mEh/K]
  Correction Cv             0.000 [cal/(mol K)]        0.000 [J/(mol K)]       0.00000000 [mEh/K]

  Constant pressure heat capacity, Cp
    Electronic Cp           0.000 [cal/(mol K)]        0.000 [J/(mol K)]       0.00000000 [mEh/K]
    Translational Cp        4.968 [cal/(mol K)]       20.786 [J/(mol K)]       0.00791703 [mEh/K]
    Rotational Cp           2.981 [cal/(mol K)]       12.472 [J/(mol K)]       0.00475022 [mEh/K]
    Vibrational Cp          5.675 [cal/(mol K)]       23.742 [J/(mol K)]       0.00904300 [mEh/K]
  Total Cp                 13.623 [cal/(mol K)]       57.000 [J/(mol K)]       0.02171024 [mEh/K]
  Correction Cp             0.000 [cal/(mol K)]        0.000 [J/(mol K)]       0.00000000 [mEh/K]

  ==> Thermochemistry Energy Analysis <==

  Raw electronic energy, E0
  Total E0, Electronic energy at well bottom at 0 [K]                 -407.09417985 [Eh]

  Zero-point energy, ZPE_vib = Sum_i nu_i / 2
    Electronic ZPE          0.000 [kcal/mol]        0.000 [kJ/mol]       0.00000000 [Eh]
    Translational ZPE       0.000 [kcal/mol]        0.000 [kJ/mol]       0.00000000 [Eh]
    Rotational ZPE          0.000 [kcal/mol]        0.000 [kJ/mol]       0.00000000 [Eh]
    Vibrational ZPE         0.679 [kcal/mol]        2.839 [kJ/mol]       0.00108131 [Eh]         237.321 [cm^-1]
  Correction ZPE            0.679 [kcal/mol]        2.839 [kJ/mol]       0.00108131 [Eh]         237.321 [cm^-1]
  Total ZPE, Electronic energy at 0 [K]                               -407.09309854 [Eh]

  Thermal Energy, E (includes ZPE)
    Electronic E            0.000 [kcal/mol]        0.000 [kJ/mol]       0.00000000 [Eh]
    Translational E         0.889 [kcal/mol]        3.718 [kJ/mol]       0.00141628 [Eh]
    Rotational E            0.889 [kcal/mol]        3.718 [kJ/mol]       0.00141628 [Eh]
    Vibrational E           1.865 [kcal/mol]        7.803 [kJ/mol]       0.00297188 [Eh]
  Correction E              3.642 [kcal/mol]       15.240 [kJ/mol]       0.00580443 [Eh]
  Total E, Electronic energy at  298.15 [K]                           -407.08837542 [Eh]

  Enthalpy, H_trans = E_trans + k_B * T
    Electronic H            0.000 [kcal/mol]        0.000 [kJ/mol]       0.00000000 [Eh]
    Translational H         1.481 [kcal/mol]        6.197 [kJ/mol]       0.00236046 [Eh]
    Rotational H            0.889 [kcal/mol]        3.718 [kJ/mol]       0.00141628 [Eh]
    Vibrational H           1.865 [kcal/mol]        7.803 [kJ/mol]       0.00297188 [Eh]
  Correction H              4.235 [kcal/mol]       17.718 [kJ/mol]       0.00674862 [Eh]
  Total H, Enthalpy at  298.15 [K]                                    -407.08743123 [Eh]

  Gibbs free energy, G = H - T * S
    Electronic G            0.000 [kcal/mol]        0.000 [kJ/mol]       0.00000000 [Eh]
    Translational G       -11.940 [kcal/mol]      -49.955 [kJ/mol]      -0.01902682 [Eh]
    Rotational G           -8.131 [kcal/mol]      -34.021 [kJ/mol]      -0.01295798 [Eh]
    Vibrational G          -0.458 [kcal/mol]       -1.915 [kJ/mol]      -0.00072938 [Eh]
  Correction G            -20.528 [kcal/mol]      -85.891 [kJ/mol]      -0.03271418 [Eh]
  Total G, Free enthalpy at  298.15 [K]                               -407.12689403 [Eh]

*** Psi4 exiting successfully. Buy a developer a beer!
