                               Psi4 1.4.1 release

  ==> Input File <==

--------------------------------------------------------------------------
memory 120 GB

molecule {
1 1
Au       0.000000    0.000000    0.000000
Au       0.000000    0.000000    2.576864
Au       0.000000    0.000000   -2.576864
 }

set dynamic_level 1
set basis Def2-TZVPPD

optimize("SCAN-D3BJ")
frequencies("SCAN-D3BJ")
--------------------------------------------------------------------------

    Molecular point group: d2h
  Charge       = 1
  Multiplicity = 1
  Basis Set: DEF2-TZVPPD
    Blend: DEF2-TZVPPD
  Basis Set: (DEF2-TZVPPD AUX)
    Blend: DEF2-UNIVERSAL-JKFIT
  @DF-RKS Final Energy:  -407.02560107153471
    Total Energy =                       -407.0256010715347088
    Molecular point group: d2h
  Basis Set: DEF2-TZVPPD
    Blend: DEF2-TZVPPD
  Basis Set: (DEF2-TZVPPD AUX)
    Blend: DEF2-UNIVERSAL-JKFIT
  Basis Set: DEF2-TZVPPD
    Blend: DEF2-TZVPPD
  Basis Set: (DEF2-TZVPPD AUX)
    Blend: DEF2-UNIVERSAL-JKFIT
  @DF-RKS Final Energy:  -407.02524170532530
    Total Energy =                       -407.0252417053252998
  Basis Set: DEF2-TZVPPD
    Blend: DEF2-TZVPPD
  Basis Set: (DEF2-TZVPPD AUX)
    Blend: DEF2-UNIVERSAL-JKFIT
  Basis Set: DEF2-TZVPPD
    Blend: DEF2-TZVPPD
  @DF-RKS Final Energy:  -407.02574066523266
    Total Energy =                       -407.0257406652326608
  @DF-RKS Final Energy:  -407.02524082727263
    Total Energy =                       -407.0252408272726257
  @DF-RKS Final Energy:  -407.02574054524820
    Total Energy =                       -407.0257405452481976
  @DF-RKS Final Energy:  -407.02524121176970
    Total Energy =                       -407.0252412117696963
  @DF-RKS Final Energy:  -407.02574054524808
    Total Energy =                       -407.0257405452480839
  @DF-RKS Final Energy:  -407.02524072491235
    Total Energy =                       -407.0252407249123507
  @DF-RKS Final Energy:  -407.02524120337154
    Total Energy =                       -407.0252412033715359
  **** Optimization is complete! (in 2 steps) ****
    Final optimized geometry and variables:
  @DF-RKS Final Energy:  -407.02524120337176
    Total Energy =                       -407.0252412033717633
  @DF-RKS Final Energy:  -407.02524120337165
    Total Energy =                       -407.0252412033716496
  @DF-RKS Final Energy:  -407.02524126050247
    Total Energy =                       -407.0252412605024688
  @DF-RKS Final Energy:  -407.02524124338140
    Total Energy =                       -407.0252412433814015
  @DF-RKS Final Energy:  -407.02524124405915
    Total Energy =                       -407.0252412440591456
  Basis Set: (DEF2-TZVPPD AUX)
    Blend: DEF2-UNIVERSAL-JKFIT
  Basis Set: DEF2-TZVPPD
    Blend: DEF2-TZVPPD
  Basis Set: (DEF2-TZVPPD AUX)
    Blend: DEF2-UNIVERSAL-JKFIT
  @DF-RKS Final Energy:  -407.02524120935323
    Total Energy =                       -407.0252412093532257
  Basis Set: DEF2-TZVPPD
    Blend: DEF2-TZVPPD
  Basis Set: (DEF2-TZVPPD AUX)
    Blend: DEF2-UNIVERSAL-JKFIT
    Molecular point group: c2v
  Charge       = 1
  Multiplicity = 1
  Basis Set: DEF2-TZVPPD
    Blend: DEF2-TZVPPD
  Basis Set: (DEF2-TZVPPD AUX)
    Blend: DEF2-UNIVERSAL-JKFIT

    Orbital Energies [Eh]
    ---------------------

    Doubly Occupied:

       1A1    -4.312642     1B2    -4.312637     2A1    -4.278274
       2B2    -2.500835     3A1    -2.499672     4A1    -2.493427
       1B1    -2.493427     3B2    -2.493419     1A2    -2.493419
       4B2    -2.467851     5A1    -2.453482     2B1    -2.453482
       6A1    -0.564995     5B2    -0.508389     2A2    -0.508389
       6B2    -0.494117     7A1    -0.485743     3B1    -0.485743
       8A1    -0.477237     4B1    -0.477160     7B2    -0.476102
       3A2    -0.476025     9A1    -0.443659    10A1    -0.431242
       5B1    -0.431148     8B2    -0.425485     4A2    -0.425485
      11A1    -0.414366

  @DF-RKS Final Energy:  -407.02524121012340

   => Energetics <=

    Nuclear Repulsion Energy =            186.7874858913421292
    One-Electron Energy =               -1078.0155085799274275
    Two-Electron Energy =                 522.6256918406600107
    DFT Exchange-Correlation Energy =     -38.4223640921981513
    Empirical Dispersion Energy =          -0.0005462700000000
    VV10 Nonlocal Energy =                  0.0000000000000000
    Total Energy =                       -407.0252412101233972

  Dipole Moment: [D]
     X:    -0.0003      Y:     0.0000      Z:     0.0000     Total:     0.0003

    Molecular point group: c2v

    Geometry (in Angstrom), charge = 1, multiplicity = 1:

       Center              X                  Y                   Z               Mass
    ------------   -----------------  -----------------  -----------------  -----------------
         AU          -0.000153932119     0.000000000000     0.000000000000   196.966568790000
         AU           0.000076966060     0.000000000000     2.556822416624   196.966568790000
         AU           0.000076966060     0.000000000000    -2.556822416624   196.966568790000

  Basis Set: DEF2-TZVPPD
    Blend: DEF2-TZVPPD
  Basis Set: (DEF2-TZVPPD AUX)
    Blend: DEF2-UNIVERSAL-JKFIT

  -Total Gradient:
     Atom            X                  Y                   Z
    ------   -----------------  -----------------  -----------------
       1        0.000018734231     0.000000000000     0.000000000000
       2       -0.000008466322     0.000000000000    -0.000155948902
       3       -0.000008466322     0.000000000000     0.000155948902

  Vibration                       1                   2                   3
  Freq [cm^-1]                268.6279i            91.4532i            91.4507i
  Irrep                           Ag                 B2u                 B3u
  Reduced mass [u]             196.9666            196.9666            196.9666
  Force const [mDyne/A]        -8.3742             -0.9706             -0.9705

  Vibration                       9
  Freq [cm^-1]                 165.8898
  Irrep                          B1u
  Reduced mass [u]             196.9666
  Force const [mDyne/A]         3.1936

  ==> Thermochemistry Components <==

  Entropy, S
    Electronic S            0.000 [cal/(mol K)]        0.000 [J/(mol K)]       0.00000000 [mEh/K] (multiplicity = 1)
    Translational S        45.013 [cal/(mol K)]      188.336 [J/(mol K)]       0.07173329 [mEh/K] (mol. weight = 590.8997 [u], P = 101325.00 [Pa])
    Rotational S           21.203 [cal/(mol K)]       88.712 [J/(mol K)]       0.03378849 [mEh/K] (symmetry no. = 2)
    Vibrational S           2.482 [cal/(mol K)]       10.383 [J/(mol K)]       0.00395459 [mEh/K]
  Total S                  68.697 [cal/(mol K)]      287.430 [J/(mol K)]       0.10947637 [mEh/K]
  Correction S              0.000 [cal/(mol K)]        0.000 [J/(mol K)]       0.00000000 [mEh/K]

  Constant volume heat capacity, Cv
    Electronic Cv           0.000 [cal/(mol K)]        0.000 [J/(mol K)]       0.00000000 [mEh/K]
    Translational Cv        2.981 [cal/(mol K)]       12.472 [J/(mol K)]       0.00475022 [mEh/K]
    Rotational Cv           1.987 [cal/(mol K)]        8.314 [J/(mol K)]       0.00316681 [mEh/K]
    Vibrational Cv          1.884 [cal/(mol K)]        7.884 [J/(mol K)]       0.00300297 [mEh/K]
  Total Cv                  6.852 [cal/(mol K)]       28.670 [J/(mol K)]       0.01092000 [mEh/K]
  Correction Cv             0.000 [cal/(mol K)]        0.000 [J/(mol K)]       0.00000000 [mEh/K]

  Constant pressure heat capacity, Cp
    Electronic Cp           0.000 [cal/(mol K)]        0.000 [J/(mol K)]       0.00000000 [mEh/K]
    Translational Cp        4.968 [cal/(mol K)]       20.786 [J/(mol K)]       0.00791703 [mEh/K]
    Rotational Cp           1.987 [cal/(mol K)]        8.314 [J/(mol K)]       0.00316681 [mEh/K]
    Vibrational Cp          1.884 [cal/(mol K)]        7.884 [J/(mol K)]       0.00300297 [mEh/K]
  Total Cp                  8.840 [cal/(mol K)]       36.985 [J/(mol K)]       0.01408681 [mEh/K]
  Correction Cp             0.000 [cal/(mol K)]        0.000 [J/(mol K)]       0.00000000 [mEh/K]

  ==> Thermochemistry Energy Analysis <==

  Raw electronic energy, E0
  Total E0, Electronic energy at well bottom at 0 [K]                 -407.02524120 [Eh]

  Zero-point energy, ZPE_vib = Sum_i nu_i / 2
    Electronic ZPE          0.000 [kcal/mol]        0.000 [kJ/mol]       0.00000000 [Eh]
    Translational ZPE       0.000 [kcal/mol]        0.000 [kJ/mol]       0.00000000 [Eh]
    Rotational ZPE          0.000 [kcal/mol]        0.000 [kJ/mol]       0.00000000 [Eh]
    Vibrational ZPE         0.237 [kcal/mol]        0.992 [kJ/mol]       0.00037792 [Eh]          82.945 [cm^-1]
  Correction ZPE            0.237 [kcal/mol]        0.992 [kJ/mol]       0.00037792 [Eh]          82.945 [cm^-1]
  Total ZPE, Electronic energy at 0 [K]                               -407.02486328 [Eh]

  Thermal Energy, E (includes ZPE)
    Electronic E            0.000 [kcal/mol]        0.000 [kJ/mol]       0.00000000 [Eh]
    Translational E         0.889 [kcal/mol]        3.718 [kJ/mol]       0.00141628 [Eh]
    Rotational E            0.592 [kcal/mol]        2.479 [kJ/mol]       0.00094418 [Eh]
    Vibrational E           0.624 [kcal/mol]        2.610 [kJ/mol]       0.00099408 [Eh]
  Correction E              2.105 [kcal/mol]        8.807 [kJ/mol]       0.00335454 [Eh]
  Total E, Electronic energy at  298.15 [K]                           -407.02188666 [Eh]

  Enthalpy, H_trans = E_trans + k_B * T
    Electronic H            0.000 [kcal/mol]        0.000 [kJ/mol]       0.00000000 [Eh]
    Translational H         1.481 [kcal/mol]        6.197 [kJ/mol]       0.00236046 [Eh]
    Rotational H            0.592 [kcal/mol]        2.479 [kJ/mol]       0.00094418 [Eh]
    Vibrational H           0.624 [kcal/mol]        2.610 [kJ/mol]       0.00099408 [Eh]
  Correction H              2.697 [kcal/mol]       11.286 [kJ/mol]       0.00429872 [Eh]
  Total H, Enthalpy at  298.15 [K]                                    -407.02094248 [Eh]

  Gibbs free energy, G = H - T * S
    Electronic G            0.000 [kcal/mol]        0.000 [kJ/mol]       0.00000000 [Eh]
    Translational G       -11.940 [kcal/mol]      -49.955 [kJ/mol]      -0.01902682 [Eh]
    Rotational G           -5.729 [kcal/mol]      -23.970 [kJ/mol]      -0.00912985 [Eh]
    Vibrational G          -0.116 [kcal/mol]       -0.486 [kJ/mol]      -0.00018498 [Eh]
  Correction G            -17.785 [kcal/mol]      -74.411 [kJ/mol]      -0.02834166 [Eh]
  Total G, Free enthalpy at  298.15 [K]                               -407.05358286 [Eh]

*** Psi4 exiting successfully. Buy a developer a beer!
