                               Psi4 1.4.1 release

  ==> Input File <==

--------------------------------------------------------------------------
memory 120 GB

molecule {
0 2
Au       0.000000    1.515176   -0.000000
Au       1.312181   -0.757588    0.000000
Au      -1.312181   -0.757588   -0.000000
 }

set reference uks
set dynamic_level 1
set basis Def2-TZVPPD

optimize("SCAN-D3BJ")
frequencies("SCAN-D3BJ")
--------------------------------------------------------------------------

    Molecular point group: c2v
  Charge       = 0
  Multiplicity = 2
  Basis Set: DEF2-TZVPPD
    Blend: DEF2-TZVPPD
  Basis Set: (DEF2-TZVPPD AUX)
    Blend: DEF2-UNIVERSAL-JKFIT
  @DF-UKS Final Energy:  -407.35669732753445
    Total Energy =                       -407.3566973275345617
    Molecular point group: c2v
  Basis Set: DEF2-TZVPPD
    Blend: DEF2-TZVPPD
  Basis Set: (DEF2-TZVPPD AUX)
    Blend: DEF2-UNIVERSAL-JKFIT
  Basis Set: DEF2-TZVPPD
    Blend: DEF2-TZVPPD
  Basis Set: (DEF2-TZVPPD AUX)
    Blend: DEF2-UNIVERSAL-JKFIT
  @DF-UKS Final Energy:  -407.35774807069288
    Total Energy =                       -407.3577480706929919
  Basis Set: DEF2-TZVPPD
    Blend: DEF2-TZVPPD
  Basis Set: (DEF2-TZVPPD AUX)
    Blend: DEF2-UNIVERSAL-JKFIT
  Basis Set: DEF2-TZVPPD
    Blend: DEF2-TZVPPD
  @DF-UKS Final Energy:  -407.35791264833313
    Total Energy =                       -407.3579126483332402
  @DF-UKS Final Energy:  -407.35794202661998
    Total Energy =                       -407.3579420266200373
  @DF-UKS Final Energy:  -407.35793943578858
    Total Energy =                       -407.3579394357886372
  @DF-UKS Final Energy:  -407.35794202662044
    Total Energy =                       -407.3579420266204352
  @DF-UKS Final Energy:  -407.35793911265068
    Total Energy =                       -407.3579391126506835
  @DF-UKS Final Energy:  -407.35794067394534
    Total Energy =                       -407.3579406739453361
  @DF-UKS Final Energy:  -407.35793933709249
    Total Energy =                       -407.3579393370925459
  @DF-UKS Final Energy:  -407.35794005065873
    Total Energy =                       -407.3579400506586694
  **** Optimization is complete! (in 3 steps) ****
    Final optimized geometry and variables:
  @DF-UKS Final Energy:  -407.35794005065873
    Total Energy =                       -407.3579400506587831
  @DF-UKS Final Energy:  -407.35794004985246
    Total Energy =                       -407.3579400498524592
  @DF-UKS Final Energy:  -407.35793964038260
    Total Energy =                       -407.3579396403826536
  @DF-UKS Final Energy:  -407.35794045482157
    Total Energy =                       -407.3579404548214598
  @DF-UKS Final Energy:  -407.35793937825304
    Total Energy =                       -407.3579393782530929
  Basis Set: (DEF2-TZVPPD AUX)
    Blend: DEF2-UNIVERSAL-JKFIT
  Basis Set: DEF2-TZVPPD
    Blend: DEF2-TZVPPD
  Basis Set: (DEF2-TZVPPD AUX)
    Blend: DEF2-UNIVERSAL-JKFIT
  @DF-UKS Final Energy:  -407.35794069419046
    Total Energy =                       -407.3579406941904040
  Basis Set: DEF2-TZVPPD
    Blend: DEF2-TZVPPD
  Basis Set: (DEF2-TZVPPD AUX)
    Blend: DEF2-UNIVERSAL-JKFIT
    Molecular point group: cs
  Charge       = 0
  Multiplicity = 2
  Basis Set: DEF2-TZVPPD
    Blend: DEF2-TZVPPD
  Basis Set: (DEF2-TZVPPD AUX)
    Blend: DEF2-UNIVERSAL-JKFIT

    Orbital Energies [Eh]
    ---------------------

    Alpha Occupied:

       1Ap    -4.121760     2Ap    -4.121194     3Ap    -4.106782
       4Ap    -2.312810     5Ap    -2.304261     6Ap    -2.302117
       7Ap    -2.299404     1App   -2.297654     2App   -2.296718
       8Ap    -2.290380     9Ap    -2.285326     3App   -2.278445
      10Ap    -0.382247    11Ap    -0.347809    12Ap    -0.327190
       4App   -0.326730    13Ap    -0.310504     5App   -0.299305
       6App   -0.288104    14Ap    -0.278207    15Ap    -0.266491
      16Ap    -0.263892    17Ap    -0.262392     7App   -0.259765
      18Ap    -0.254925     8App   -0.253997     9App   -0.253696
      19Ap    -0.235562    20Ap    -0.180456

    Alpha Virtual:

      21Ap    -0.169465    10App   -0.062586    22Ap    -0.044234
      23Ap    -0.026192    24Ap    -0.024340    11App    0.025070
      12App    0.029682    25Ap     0.070382    26Ap     0.075876
      27Ap     0.095487    28Ap     0.152147    29Ap     0.159054
      13App    0.159953    30Ap     0.178050    31Ap     0.181194
      14App    0.212032    15App    0.217873    32Ap     0.240240
      33Ap     0.247444    34Ap     0.282279    35Ap     0.283681
      36Ap     0.298870    16App    0.306167    17App    0.308753
      37Ap     0.311164    18App    0.333519    38Ap     0.380301
      39Ap     0.381615    19App    0.413754    20App    0.449608
      21App    0.451018    40Ap     0.457573    41Ap     0.462784
      42Ap     0.473109    43Ap     0.553886    44Ap     0.555884
      45Ap     0.568704    46Ap     0.795500    47Ap     0.866678
      22App    0.904815    48Ap     0.904926    49Ap     0.909065
      23App    0.963743    24App    0.993944    25App    1.046818
      50Ap     1.050289    51Ap     1.061713    26App    1.065658
      27App    1.065959    28App    1.068670    52Ap     1.089003
      53Ap     1.107836    54Ap     1.126681    29App    1.138946
      30App    1.151620    55Ap     1.194541    56Ap     1.210541
      57Ap     1.218187    31App    1.302430    58Ap     1.310869
      59Ap     1.321285    60Ap     1.334373    32App    1.342061
      33App    1.356502    61Ap     1.357788    62Ap     1.383477
      34App    1.422814    63Ap     1.426777    64Ap     1.429026
      35App    1.434249    36App    1.445329    65Ap     1.470959
      66Ap     1.477098    67Ap     1.494637    68Ap     1.550456
      37App    1.554915    69Ap     1.591079    38App    1.602892
      39App    1.643905    70Ap     1.803228    71Ap     1.844717
      72Ap     2.056774    73Ap     2.151837    74Ap     2.648592
      75Ap     2.685774    76Ap     3.437756    40App    3.464544
      41App    3.489286    42App    3.492233    43App    3.529085
      77Ap     3.536886    78Ap     3.557979    44App    3.604892
      45App    3.617250    79Ap     3.618935    80Ap     3.625689
      81Ap     3.635744    82Ap     3.680795    46App    3.759411
      83Ap     3.769633    47App    3.780725    48App    3.799352
      84Ap     3.803286    85Ap     3.886878    86Ap     3.906458
      87Ap     3.964638    88Ap     4.117141    89Ap     4.124287
      49App    4.126597    90Ap     4.130896    50App    4.131798
      51App    4.135313    91Ap     4.136182    52App    4.142052
      53App    4.143807    92Ap     4.144487    93Ap     4.145253
      54App    4.145790    94Ap     4.145933    55App    4.146123
      95Ap     4.147051    56App    4.149543    96Ap     4.156310
      97Ap     4.157617    57App    4.157872    58App    4.178534
      59App    4.182825    98Ap     4.183280    60App    4.227118
      99Ap     4.233207   100Ap     4.306210   101Ap     4.345130
     102Ap     4.506495    61App   27.363290   103Ap    27.542562
     104Ap    27.576809   105Ap    27.683089    62App   27.723247
      63App   27.787726   106Ap    29.172891   107Ap    29.627780
     108Ap    30.388586   109Ap    44.130201   110Ap    44.638710
     111Ap    44.671512   112Ap   205.188126   113Ap   205.410016
     114Ap   205.419378

    Beta Occupied:

       1Ap    -4.120982     2Ap    -4.120422     3Ap    -4.103182
       4Ap    -2.312868     5Ap    -2.303376     6Ap    -2.300731
       7Ap    -2.299154     1App   -2.297746     2App   -2.296821
       8Ap    -2.286461     9Ap    -2.283859     3App   -2.278869
      10Ap    -0.380551    11Ap    -0.345527     4App   -0.325762
      12Ap    -0.321144    13Ap    -0.305412     5App   -0.297575
       6App   -0.285679    14Ap    -0.274407    15Ap    -0.266042
      16Ap    -0.262057     7App   -0.260276    17Ap    -0.256610
       8App   -0.250224     9App   -0.247589    18Ap    -0.247403
      19Ap    -0.227656

    Beta Virtual:

      20Ap    -0.161333    21Ap    -0.143784    10App   -0.054351
      22Ap    -0.028236    23Ap    -0.012425    24Ap    -0.005239
      11App    0.032502    12App    0.038328    25Ap     0.069986
      26Ap     0.075352    27Ap     0.100366    28Ap     0.154972
      29Ap     0.157269    13App    0.159571    30Ap     0.175160
      31Ap     0.180958    14App    0.213763    15App    0.218705
      32Ap     0.237595    33Ap     0.243035    34Ap     0.286665
      35Ap     0.288301    36Ap     0.308010    16App    0.310260
      17App    0.312726    37Ap     0.313128    18App    0.338796
      38Ap     0.386296    39Ap     0.387547    19App    0.418520
      20App    0.452068    21App    0.459138    40Ap     0.461763
      41Ap     0.467510    42Ap     0.476774    43Ap     0.557777
      44Ap     0.558046    45Ap     0.568424    46Ap     0.800613
      47Ap     0.867933    48Ap     0.906727    22App    0.908334
      49Ap     0.914367    23App    0.968135    24App    1.002933
      25App    1.050346    50Ap     1.054777    51Ap     1.063519
      26App    1.065173    27App    1.067287    28App    1.073629
      52Ap     1.093988    53Ap     1.112132    54Ap     1.130802
      29App    1.148577    30App    1.154164    55Ap     1.198529
      56Ap     1.209696    57Ap     1.226715    31App    1.310021
      58Ap     1.319490    59Ap     1.321861    60Ap     1.339182
      32App    1.350301    33App    1.355640    61Ap     1.363502
      62Ap     1.383296    34App    1.422360    63Ap     1.430203
      64Ap     1.430882    35App    1.441748    36App    1.448916
      65Ap     1.475113    66Ap     1.482870    67Ap     1.500928
      68Ap     1.554773    37App    1.555036    69Ap     1.594265
      38App    1.612434    39App    1.643188    70Ap     1.806659
      71Ap     1.848288    72Ap     2.060494    73Ap     2.152749
      74Ap     2.656857    75Ap     2.684302    76Ap     3.444436
      40App    3.470817    41App    3.489269    42App    3.501008
      43App    3.532568    77Ap     3.537983    78Ap     3.563285
      44App    3.611649    45App    3.618443    79Ap     3.627205
      80Ap     3.634763    81Ap     3.640507    82Ap     3.681090
      46App    3.769353    83Ap     3.782803    47App    3.792583
      48App    3.799133    84Ap     3.806039    85Ap     3.889524
      86Ap     3.916491    87Ap     3.975508    88Ap     4.119507
      49App    4.128125    89Ap     4.128972    50App    4.134688
      90Ap     4.138873    51App    4.142231    91Ap     4.142792
      52App    4.147146    53App    4.147252    92Ap     4.149053
      93Ap     4.150122    54App    4.151476    94Ap     4.153340
      55App    4.153996    95Ap     4.155996    56App    4.164441
      96Ap     4.169059    97Ap     4.170060    57App    4.170184
      58App    4.191447    59App    4.194870    98Ap     4.195719
      60App    4.227407    99Ap     4.237592   100Ap     4.315930
     101Ap     4.355401   102Ap     4.508374    61App   27.358407
     103Ap    27.538836   104Ap    27.570775   105Ap    27.683978
      62App   27.714468    63App   27.784874   106Ap    29.171527
     107Ap    29.635316   108Ap    30.383280   109Ap    44.125358
     110Ap    44.631023   111Ap    44.669706   112Ap   205.188067
     113Ap   205.409841   114Ap   205.419399

    Final Occupation by Irrep:
             Ap   App
    DOCC [    19,    9 ]
    SOCC [     1,    0 ]

  @DF-UKS Final Energy:  -407.35794006657238

   => Energetics <=

    Nuclear Repulsion Energy =            218.7696727439412996
    One-Electron Energy =               -1152.6942548968254414
    Two-Electron Energy =                 565.1960266517037326
    DFT Exchange-Correlation Energy =     -38.6287697653920787
    Empirical Dispersion Energy =          -0.0006148000000000
    VV10 Nonlocal Energy =                  0.0000000000000000
    Total Energy =                       -407.3579400665724393

  UHF NO Occupations:
  HONO-2 :   18 Ap 1.9974973
  HONO-1 :   19 Ap 1.9848555
  HONO-0 :   20 Ap 1.0000000
  LUNO+0 :   21 Ap 0.0151445
  LUNO+1 :   22 Ap 0.0025027
  LUNO+2 :   23 Ap 0.0007889
  LUNO+3 :   24 Ap 0.0004115

Computation Completed

Properties will be evaluated at   0.000000,   0.000000,   0.000000 [a0]

Properties computed using the SCF density matrix

  Nuclear Dipole Moment: [e a0]
     X:    -0.0000      Y:     0.0000      Z:    -0.0000

  Electronic Dipole Moment: [e a0]
     X:    -0.0004      Y:     0.0000      Z:    -0.4428

  Dipole Moment: [e a0]
     X:    -0.0004      Y:     0.0000      Z:    -0.4428     Total:     0.4428

  Dipole Moment: [D]
     X:    -0.0011      Y:     0.0000      Z:    -1.1254     Total:     1.1254

*** tstop() called on compute286.bc4.acrc.priv at Fri Nov  5 08:46:29 2021
Module time:
	user time   =     696.97 seconds =      11.62 minutes
	system time =      20.36 seconds =       0.34 minutes
	total time  =         32 seconds =       0.53 minutes
Total time:
	user time   =   28582.12 seconds =     476.37 minutes
	system time =     479.50 seconds =       7.99 minutes
	total time  =       3586 seconds =      59.77 minutes

*** tstart() called on compute286.bc4.acrc.priv
*** at Fri Nov  5 08:46:29 2021

         ------------------------------------------------------------
                                   SCF GRAD
                          Rob Parrish, Justin Turney,
                       Andy Simmonett, and Alex Sokolov
         ------------------------------------------------------------

  ==> Geometry <==

    Molecular point group: cs
    Full point group: Cs

    Geometry (in Angstrom), charge = 0, multiplicity = 2:

       Center              X                  Y                   Z               Mass
    ------------   -----------------  -----------------  -----------------  -----------------
         AU          -0.000105144920     0.000000000000     1.563543258927   196.966568790000
         AU           1.266424922097     0.000000000000    -0.781868993381   196.966568790000
         AU          -1.266319777177     0.000000000000    -0.781674265546   196.966568790000

  Nuclear repulsion =  218.769672743941300

  ==> Basis Set <==

  Basis Set: DEF2-TZVPPD
    Blend: DEF2-TZVPPD
    Number of shells: 51
    Number of basis functions: 177
    Number of Cartesian functions: 222
    Spherical Harmonics?: true
    Max angular momentum: 4

  Core potential: DEF2-TZVPPD
    Number of shells: 12
    Number of ECP primitives: 42
    Number of ECP core electrons: 180
    Max angular momentum: 3

  ==> DFJKGrad: Density-Fitted SCF Gradients <==

    Gradient:                    1
    J tasked:                  Yes
    K tasked:                   No
    wK tasked:                  No
    OpenMP threads:             28
    Integrals threads:          28
    Memory [MiB]:            85830
    Schwarz Cutoff:          1E-12
    Fitting Condition:       1E-10

   => Auxiliary Basis Set <=

  Basis Set: (DEF2-TZVPPD AUX)
    Blend: DEF2-UNIVERSAL-JKFIT
    Number of shells: 153
    Number of basis functions: 741
    Number of Cartesian functions: 1095
    Spherical Harmonics?: true
    Max angular momentum: 6

  ==> DFT Potential <==

   => Composite Functional: SCAN-D3BJ <=

    SCAN Meta-GGA XC Functional
(10.1103/PhysRevLett.115.036402)
    J. Sun, A. Ruzsinszky, J. P. Perdew  Phys. Rev. Lett. 115, 036402, 2015

    Deriv               =              1
    GGA                 =           TRUE
    Meta                =           TRUE

    Exchange Hybrid     =          FALSE
    MP2 Hybrid          =          FALSE

   => Exchange Functionals <=

    1.0000   XC_MGGA_X_SCAN

   => Correlation Functionals <=

    1.0000   XC_MGGA_C_SCAN

   => LibXC Density Thresholds  <==

    XC_MGGA_C_SCAN:  1.00E-15
    XC_MGGA_X_SCAN:  1.00E-15

   => Molecular Quadrature <=

    Radial Scheme          =       TREUTLER
    Pruning Scheme         =           NONE
    Nuclear Scheme         =       TREUTLER

    BS radius alpha        =              1
    Pruning alpha          =              1
    Radial Points          =             75
    Spherical Points       =            302
    Total Points           =          64062
    Total Blocks           =            580
    Max Points             =            255
    Max Functions          =            174
    Weights Tolerance      =       1.00E-15

  -Total Gradient:
     Atom            X                  Y                   Z
    ------   -----------------  -----------------  -----------------
       1       -0.000019474850     0.000000000000    -0.041831514071
       2       -0.071349031561     0.000000000000     0.021055838770
       3        0.071373258105     0.000000000000     0.021093711660

*** tstop() called on compute286.bc4.acrc.priv at Fri Nov  5 08:46:41 2021
Module time:
	user time   =     103.32 seconds =       1.72 minutes
	system time =       3.32 seconds =       0.06 minutes
	total time  =         12 seconds =       0.20 minutes
Total time:
	user time   =   28688.99 seconds =     478.15 minutes
	system time =     482.99 seconds =       8.05 minutes
	total time  =       3598 seconds =      59.97 minutes

  ==> Adding ECP gradient terms (computed numerically) <==

  -ECP Gradient:
     Atom            X                  Y                   Z
    ------   -----------------  -----------------  -----------------
       1        0.000018833954     0.000000000000     0.041900994621
       2        0.071423441253     0.000000000000    -0.020934170871
       3       -0.071439213004     0.000000000000    -0.020964091547

  -Total Gradient:
     Atom            X                  Y                   Z
    ------   -----------------  -----------------  -----------------
       1       -0.000000640896     0.000000000000     0.000069480550
       2        0.000074409692     0.000000000000     0.000121667899
       3       -0.000065954899     0.000000000000     0.000129620113

         ----------------------------------------------------------
                                   FINDIF
                     R. A. King and Jonathon Misiewicz
         ---------------------------------------------------------

  Computing second-derivative from gradients using projected,
  symmetry-adapted, cartesian coordinates.

  6 gradients passed in, including the reference geometry.
  Generating complete list of displacements from unique ones.

    Operation 2 takes plus displacements of irrep B1 to minus ones.

-------------------------------------------------------------

  ==> Harmonic Vibrational Analysis <==

  non-mass-weighted Hessian:       Symmetric? True   Hermitian? True   Lin Dep Dim?  6 (0)
  projection of translations (True) and rotations (True) removed 6 degrees of freedom (6)
  total projector:                 Symmetric? True   Hermitian? True   Lin Dep Dim?  6 (6)
  mass-weighted Hessian:           Symmetric? True   Hermitian? True   Lin Dep Dim?  6 (0)
  pre-proj  low-frequency mode:    0.0000i [cm^-1]
  pre-proj  low-frequency mode:    0.0000i [cm^-1]
  pre-proj  low-frequency mode:    0.0000i [cm^-1]
  pre-proj  low-frequency mode:    0.0000  [cm^-1]
  pre-proj  low-frequency mode:    0.0000  [cm^-1]
  pre-proj  low-frequency mode:    0.0000  [cm^-1]
  pre-proj  low-frequency mode:   50.6847  [cm^-1]
  pre-proj  all modes:['0.0000i' '0.0000i' '0.0000i' '0.0000' '0.0000' '0.0000' '50.6847'
 '117.9344' '183.6191']
  projected mass-weighted Hessian: Symmetric? True   Hermitian? True   Lin Dep Dim?  6 (6)
  post-proj low-frequency mode:    0.0000i [cm^-1] (TR)
  post-proj low-frequency mode:    0.0000i [cm^-1] (TR)
  post-proj low-frequency mode:    0.0000i [cm^-1] (TR)
  post-proj low-frequency mode:    0.0000  [cm^-1] (TR)
  post-proj low-frequency mode:    0.0000  [cm^-1] (TR)
  post-proj low-frequency mode:    0.0000  [cm^-1] (TR)
  post-proj low-frequency mode:   50.6847  [cm^-1] (V)
  post-proj  all modes:['0.0000i' '0.0000i' '0.0000i' '0.0000' '0.0000' '0.0000' '50.6847'
 '117.9344' '183.6191']

  Vibration                       7                   8                   9
  Freq [cm^-1]                 50.6847             117.9344            183.6191
  Irrep                           B1                  A1                  A1
  Reduced mass [u]             196.9666            196.9666            196.9666
  Force const [mDyne/A]         0.2981              1.6141              3.9127
  Turning point v=0 [a0]        0.1098              0.0720              0.0577
  RMS dev v=0 [a0 u^1/2]        1.0898              0.7145              0.5726
  Char temp [K]                72.9240             169.6813            264.1870
  ----------------------------------------------------------------------------------
      1   AU               0.56  0.00  0.00    0.00  0.00  0.73    0.00  0.00  0.37
      2   AU              -0.28  0.00  0.52   -0.32  0.00 -0.36    0.63  0.00 -0.19
      3   AU              -0.28  0.00 -0.52    0.32  0.00 -0.36   -0.63  0.00 -0.19

  ==> Thermochemistry Components <==

  Entropy, S
    Electronic S            1.377 [cal/(mol K)]        5.763 [J/(mol K)]       0.00219507 [mEh/K] (multiplicity = 2)
    Translational S        45.013 [cal/(mol K)]      188.336 [J/(mol K)]       0.07173329 [mEh/K] (mol. weight = 590.8997 [u], P = 101325.00 [Pa])
    Rotational S           30.332 [cal/(mol K)]      126.908 [J/(mol K)]       0.04833689 [mEh/K] (symmetry no. = 2)
    Vibrational S          10.216 [cal/(mol K)]       42.743 [J/(mol K)]       0.01627980 [mEh/K]
  Total S                  86.938 [cal/(mol K)]      363.750 [J/(mol K)]       0.13854504 [mEh/K]
  Correction S              0.000 [cal/(mol K)]        0.000 [J/(mol K)]       0.00000000 [mEh/K]

  Constant volume heat capacity, Cv
    Electronic Cv           0.000 [cal/(mol K)]        0.000 [J/(mol K)]       0.00000000 [mEh/K]
    Translational Cv        2.981 [cal/(mol K)]       12.472 [J/(mol K)]       0.00475022 [mEh/K]
    Rotational Cv           2.981 [cal/(mol K)]       12.472 [J/(mol K)]       0.00475022 [mEh/K]
    Vibrational Cv          5.774 [cal/(mol K)]       24.158 [J/(mol K)]       0.00920127 [mEh/K]
  Total Cv                 11.735 [cal/(mol K)]       49.101 [J/(mol K)]       0.01870170 [mEh/K]
  Correction Cv             0.000 [cal/(mol K)]        0.000 [J/(mol K)]       0.00000000 [mEh/K]

  Constant pressure heat capacity, Cp
    Electronic Cp           0.000 [cal/(mol K)]        0.000 [J/(mol K)]       0.00000000 [mEh/K]
    Translational Cp        4.968 [cal/(mol K)]       20.786 [J/(mol K)]       0.00791703 [mEh/K]
    Rotational Cp           2.981 [cal/(mol K)]       12.472 [J/(mol K)]       0.00475022 [mEh/K]
    Vibrational Cp          5.774 [cal/(mol K)]       24.158 [J/(mol K)]       0.00920127 [mEh/K]
  Total Cp                 13.723 [cal/(mol K)]       57.416 [J/(mol K)]       0.02186851 [mEh/K]
  Correction Cp             0.000 [cal/(mol K)]        0.000 [J/(mol K)]       0.00000000 [mEh/K]

  ==> Thermochemistry Energy Analysis <==

  Raw electronic energy, E0
  Total E0, Electronic energy at well bottom at 0 [K]                 -407.35794005 [Eh]

  Zero-point energy, ZPE_vib = Sum_i nu_i / 2
    Electronic ZPE          0.000 [kcal/mol]        0.000 [kJ/mol]       0.00000000 [Eh]
    Translational ZPE       0.000 [kcal/mol]        0.000 [kJ/mol]       0.00000000 [Eh]
    Rotational ZPE          0.000 [kcal/mol]        0.000 [kJ/mol]       0.00000000 [Eh]
    Vibrational ZPE         0.504 [kcal/mol]        2.107 [kJ/mol]       0.00080246 [Eh]         176.119 [cm^-1]
  Correction ZPE            0.504 [kcal/mol]        2.107 [kJ/mol]       0.00080246 [Eh]         176.119 [cm^-1]
  Total ZPE, Electronic energy at 0 [K]                               -407.35713759 [Eh]

  Thermal Energy, E (includes ZPE)
    Electronic E            0.000 [kcal/mol]        0.000 [kJ/mol]       0.00000000 [Eh]
    Translational E         0.889 [kcal/mol]        3.718 [kJ/mol]       0.00141628 [Eh]
    Rotational E            0.889 [kcal/mol]        3.718 [kJ/mol]       0.00141628 [Eh]
    Vibrational E           1.835 [kcal/mol]        7.676 [kJ/mol]       0.00292359 [Eh]
  Correction E              3.612 [kcal/mol]       15.113 [kJ/mol]       0.00575614 [Eh]
  Total E, Electronic energy at  298.15 [K]                           -407.35218391 [Eh]

  Enthalpy, H_trans = E_trans + k_B * T
    Electronic H            0.000 [kcal/mol]        0.000 [kJ/mol]       0.00000000 [Eh]
    Translational H         1.481 [kcal/mol]        6.197 [kJ/mol]       0.00236046 [Eh]
    Rotational H            0.889 [kcal/mol]        3.718 [kJ/mol]       0.00141628 [Eh]
    Vibrational H           1.835 [kcal/mol]        7.676 [kJ/mol]       0.00292359 [Eh]
  Correction H              4.205 [kcal/mol]       17.592 [kJ/mol]       0.00670033 [Eh]
  Total H, Enthalpy at  298.15 [K]                                    -407.35123972 [Eh]

  Gibbs free energy, G = H - T * S
    Electronic G           -0.411 [kcal/mol]       -1.718 [kJ/mol]      -0.00065446 [Eh]
    Translational G       -11.940 [kcal/mol]      -49.955 [kJ/mol]      -0.01902682 [Eh]
    Rotational G           -8.155 [kcal/mol]      -34.119 [kJ/mol]      -0.01299537 [Eh]
    Vibrational G          -1.211 [kcal/mol]       -5.068 [kJ/mol]      -0.00193023 [Eh]
  Correction G            -21.716 [kcal/mol]      -90.860 [kJ/mol]      -0.03460688 [Eh]
  Total G, Free enthalpy at  298.15 [K]                               -407.39254693 [Eh]

*** Psi4 exiting successfully. Buy a developer a beer!
