                               Psi4 1.4.1 release

  ==> Input File <==

--------------------------------------------------------------------------
memory 120 GB

molecule {
0 2
Au       0.000000    0.000000    0.000000
Au       0.000000    0.000000    2.547414
Au       0.000000    0.000000   -2.547414
 }

set reference uks
set dynamic_level 1
set basis Def2-TZVPPD

optimize("SCAN-D3BJ")
frequencies("SCAN-D3BJ")
--------------------------------------------------------------------------

    Molecular point group: d2h
  Charge       = 0
  Multiplicity = 2
  Basis Set: DEF2-TZVPPD
    Blend: DEF2-TZVPPD
  Basis Set: (DEF2-TZVPPD AUX)
    Blend: DEF2-UNIVERSAL-JKFIT
  @DF-UKS Final Energy:  -407.35347830735680
    Total Energy =                       -407.3534783073567382
    Molecular point group: d2h
  Basis Set: DEF2-TZVPPD
    Blend: DEF2-TZVPPD
  Basis Set: (DEF2-TZVPPD AUX)
    Blend: DEF2-UNIVERSAL-JKFIT
  Basis Set: DEF2-TZVPPD
    Blend: DEF2-TZVPPD
  Basis Set: (DEF2-TZVPPD AUX)
    Blend: DEF2-UNIVERSAL-JKFIT
  @DF-UKS Final Energy:  -407.35353461512534
    Total Energy =                       -407.3535346151255681
  Basis Set: DEF2-TZVPPD
    Blend: DEF2-TZVPPD
  Basis Set: (DEF2-TZVPPD AUX)
    Blend: DEF2-UNIVERSAL-JKFIT
  Basis Set: DEF2-TZVPPD
    Blend: DEF2-TZVPPD
  @DF-UKS Final Energy:  -407.35354842994673
    Total Energy =                       -407.3535484299467271
  **** Optimization is complete! (in 3 steps) ****
    Final optimized geometry and variables:
  @DF-UKS Final Energy:  -407.35354842885056
    Total Energy =                       -407.3535484288505586
  @DF-UKS Final Energy:  -407.35354843094103
    Total Energy =                       -407.3535484309410890
  @DF-UKS Final Energy:  -407.35354813584354
    Total Energy =                       -407.3535481358436527
  @DF-UKS Final Energy:  -407.35354869948139
    Total Energy =                       -407.3535486994814505
  @DF-UKS Final Energy:  -407.35354841370020
    Total Energy =                       -407.3535484137001390
  Basis Set: (DEF2-TZVPPD AUX)
    Blend: DEF2-UNIVERSAL-JKFIT
  Basis Set: DEF2-TZVPPD
    Blend: DEF2-TZVPPD
  Basis Set: (DEF2-TZVPPD AUX)
    Blend: DEF2-UNIVERSAL-JKFIT
  @DF-UKS Final Energy:  -407.35354842972004
    Total Energy =                       -407.3535484297200355
  Basis Set: DEF2-TZVPPD
    Blend: DEF2-TZVPPD
  Basis Set: (DEF2-TZVPPD AUX)
    Blend: DEF2-UNIVERSAL-JKFIT
    Molecular point group: c2v
  Charge       = 0
  Multiplicity = 2
  Basis Set: DEF2-TZVPPD
    Blend: DEF2-TZVPPD
  Basis Set: (DEF2-TZVPPD AUX)
    Blend: DEF2-UNIVERSAL-JKFIT

    Orbital Energies [Eh]
    ---------------------

    Alpha Occupied:

       1A1    -4.113763     1B2    -4.113749     2A1    -4.099683
       2B2    -2.302580     3A1    -2.299158     4A1    -2.290730
       1B1    -2.290730     3B2    -2.290702     1A2    -2.290702
       4B2    -2.284998     5A1    -2.275027     2B1    -2.275027
       6A1    -0.381644     5B2    -0.320073     2A2    -0.320073
       6B2    -0.298325     7A1    -0.288940     3B1    -0.288940
       8A1    -0.279492     4B1    -0.279424     7B2    -0.276652
       3A2    -0.276586     9A1    -0.265843    10A1    -0.251571
       5B1    -0.251480     8B2    -0.244658     9B2    -0.235016
       4A2    -0.235016    11A1    -0.232029

    Alpha Virtual:

      12A1    -0.129821    13A1    -0.054986     6B1    -0.054986
      10B2    -0.030648    11B2    -0.011875     5A2    -0.011875
      14A1     0.066933     7B1     0.066933    15A1     0.082721
      12B2     0.098893    16A1     0.133176    17A1     0.163185
       8B1     0.163185    13B2     0.177466     6A2     0.197325
      14B2     0.197325    18A1     0.226659    19A1     0.244648
       9B1     0.244648    20A1     0.268467    10B1     0.268476
      21A1     0.276942    15B2     0.303807     7A2     0.303817
      16B2     0.325690     8A2     0.331838    17B2     0.331838
      22A1     0.393334    11B1     0.393336    18B2     0.397144
      23A1     0.429218    12B1     0.429218    24A1     0.515876
      19B2     0.561326     9A2     0.561326    20B2     0.591890
      25A1     0.645962    21B2     0.803542    26A1     0.904158
      13B1     0.904158    22B2     1.016384    10A2     1.016445
      27A1     1.016610    23B2     1.035767    11A2     1.035767
      14B1     1.067007    28A1     1.067007    29A1     1.094920
      15B1     1.094920    24B2     1.099305    12A2     1.099305
      30A1     1.104735    16B1     1.104735    31A1     1.109761
      17B1     1.109808    32A1     1.133774    18B1     1.133774
      25B2     1.177245    26B2     1.211197    13A2     1.211268
      14A2     1.245531    27B2     1.245531    33A1     1.267309
      19B1     1.389152    34A1     1.389152    28B2     1.410139
      15A2     1.410139    29B2     1.421326    20B1     1.437765
      35A1     1.437780    16A2     1.459090    30B2     1.459090
      31B2     1.462169    36A1     1.506974    21B1     1.520326
      37A1     1.520366    22B1     1.630018    38A1     1.630018
      32B2     1.712061    17A2     1.712061    33B2     1.903451
      39A1     2.071283    40A1     2.136952    34B2     2.448538
      41A1     2.810568    23B1     3.478253    42A1     3.478253
      35B2     3.499142    18A2     3.499312    43A1     3.561833
      24B1     3.561833    36B2     3.566483    19A2     3.566483
      44A1     3.573553    25B1     3.573691    45A1     3.593819
      26B1     3.593819    37B2     3.640526    20A2     3.640526
      38B2     3.677290    21A2     3.677466    39B2     3.736595
      46A1     3.800646    27B1     3.888216    47A1     3.888216
      40B2     3.992214    48A1     4.127581    41B2     4.129401
      22A2     4.129401    28B1     4.135542    49A1     4.135720
      42B2     4.140677    23A2     4.140677    50A1     4.140797
      29B1     4.140797    43B2     4.142348    51A1     4.142348
      24A2     4.142716    44B2     4.142903    30B1     4.142940
      25A2     4.142940    26A2     4.166528    45B2     4.166528
      31B1     4.167204    52A1     4.167335    53A1     4.173942
      32B1     4.174807    54A1     4.234288    33B1     4.234288
      46B2     4.246892    27A2     4.246892    55A1     4.495426
      47B2     4.514133    34B1    27.336336    56A1    27.336336
      48B2    27.675568    28A2    27.675568    57A1    27.925576
      35B1    27.925576    49B2    28.275282    58A1    28.735152
      50B2    31.761506    59A1    44.099810    51B2    44.406331
      60A1    44.809077    61A1   205.179297    52B2   205.308883
      62A1   205.487663

    Beta Occupied:

       1A1    -4.112576     1B2    -4.112561     2A1    -4.100236
       2B2    -2.303526     3A1    -2.300260     4A1    -2.291560
       1B1    -2.291560     3B2    -2.291534     1A2    -2.291534
       4B2    -2.286113     5A1    -2.275333     2B1    -2.275333
       6A1    -0.374511     5B2    -0.316323     2A2    -0.316323
       6B2    -0.294346     3B1    -0.284669     7A1    -0.284669
       8A1    -0.274509     4B1    -0.274430     7B2    -0.271216
       3A2    -0.271139     9A1    -0.251536     5B1    -0.251443
      10A1    -0.249563     8B2    -0.234756     4A2    -0.234756
      11A1    -0.231941

    Beta Virtual:

       9B2    -0.215881    12A1    -0.116086    13A1    -0.042762
       6B1    -0.042762    10B2    -0.017608     5A2     0.005180
      11B2     0.005180    14A1     0.069375     7B1     0.069375
      15A1     0.083788    12B2     0.102689    16A1     0.131505
      17A1     0.169226     8B1     0.169226    13B2     0.171786
       6A2     0.204871    14B2     0.204871    18A1     0.225821
      19A1     0.248676     9B1     0.248676    20A1     0.268254
      10B1     0.268258    21A1     0.281823    15B2     0.302172
       7A2     0.302175    16B2     0.319105     8A2     0.329454
      17B2     0.329454    22A1     0.392684    11B1     0.392689
      18B2     0.395698    23A1     0.427999    12B1     0.427999
      24A1     0.518555    19B2     0.561200     9A2     0.561200
      20B2     0.591781    25A1     0.646240    21B2     0.808146
      26A1     0.909539    13B1     0.909539    27A1     1.017236
      22B2     1.023965    10A2     1.024038    23B2     1.027391
      11A2     1.027391    14B1     1.054614    28A1     1.054614
      29A1     1.105814    15B1     1.105814    30A1     1.106491
      16B1     1.106491    24B2     1.112957    12A2     1.112957
      31A1     1.120224    17B1     1.120298    32A1     1.135602
      18B1     1.135602    25B2     1.172069    26B2     1.213145
      13A2     1.213232    14A2     1.241342    27B2     1.241342
      33A1     1.264697    19B1     1.386276    34A1     1.386276
      28B2     1.409767    15A2     1.409767    29B2     1.415840
      20B1     1.439279    35A1     1.439313    30B2     1.455694
      16A2     1.460146    31B2     1.460184    36A1     1.503355
      21B1     1.520580    37A1     1.520623    22B1     1.630548
      38A1     1.630548    32B2     1.710453    17A2     1.710453
      33B2     1.903804    39A1     2.074231    40A1     2.137478
      34B2     2.448364    41A1     2.806432    23B1     3.481125
      42A1     3.481125    35B2     3.502841    18A2     3.503023
      43A1     3.571312    24B1     3.571312    36B2     3.578806
      19A2     3.578806    44A1     3.581087    25B1     3.581251
      45A1     3.596012    26B1     3.596012    37B2     3.644610
      20A2     3.644610    38B2     3.679000    21A2     3.679185
      39B2     3.738401    46A1     3.801721    27B1     3.891096
      47A1     3.891096    40B2     3.998270    48A1     4.134282
      41B2     4.137728    22A2     4.137728    28B1     4.144495
      49A1     4.144737    23A2     4.152862    42B2     4.152931
      24A2     4.152931    50A1     4.153084    29B1     4.153084
      43B2     4.153112    44B2     4.158229    51A1     4.158229
      30B1     4.158856    25A2     4.158856    45B2     4.165009
      26A2     4.165009    31B1     4.167116    52A1     4.167364
      53A1     4.172675    32B1     4.173529    33B1     4.240230
      54A1     4.240230    46B2     4.247714    27A2     4.247714
      55A1     4.493007    47B2     4.513927    34B1    27.334185
      56A1    27.334185    48B2    27.670393    28A2    27.670393
      57A1    27.923956    35B1    27.923956    49B2    28.266598
      58A1    28.721113    50B2    31.749863    59A1    44.089334
      51B2    44.391895    60A1    44.804984    61A1   205.178853
      52B2   205.308285    62A1   205.487449

    Final Occupation by Irrep:
             A1    A2    B1    B2
    DOCC [    11,    4,    5,    8 ]
    SOCC [     0,    0,    0,    1 ]

  @DF-UKS Final Energy:  -407.35354843027699

   => Energetics <=

    Nuclear Repulsion Energy =            188.7401759370222578
    One-Electron Energy =               -1092.9980298825053069
    Two-Electron Energy =                 535.5282056895043752
    DFT Exchange-Correlation Energy =     -38.6233508442984146
    Empirical Dispersion Energy =          -0.0005493300000000
    VV10 Nonlocal Energy =                  0.0000000000000000
    Total Energy =                       -407.3535484302771010

  UHF NO Occupations:
  HONO-2 :    4 A2 1.9997952
  HONO-1 :   11 A1 1.9963157
  HONO-0 :    9 B2 1.0000000
  LUNO+0 :   12 A1 0.0036843
  LUNO+1 :    5 A2 0.0002048
  LUNO+2 :   10 B2 0.0002048
  LUNO+3 :    6 A2 0.0001502

Computation Completed

Properties will be evaluated at   0.000000,   0.000000,   0.000000 [a0]

Properties computed using the SCF density matrix

  Nuclear Dipole Moment: [e a0]
     X:     0.0000      Y:     0.0000      Z:     0.0000

  Electronic Dipole Moment: [e a0]
     X:    -0.0000      Y:     0.0000      Z:     0.0000

  Dipole Moment: [e a0]
     X:    -0.0000      Y:     0.0000      Z:     0.0000     Total:     0.0000

  Dipole Moment: [D]
     X:    -0.0000      Y:     0.0000      Z:     0.0000     Total:     0.0000

*** tstop() called on compute505.bc4.acrc.priv at Fri Nov  5 08:04:07 2021
Module time:
	user time   =     553.38 seconds =       9.22 minutes
	system time =      14.55 seconds =       0.24 minutes
	total time  =         28 seconds =       0.47 minutes
Total time:
	user time   =   17880.09 seconds =     298.00 minutes
	system time =     265.63 seconds =       4.43 minutes
	total time  =       2574 seconds =      42.90 minutes

*** tstart() called on compute505.bc4.acrc.priv
*** at Fri Nov  5 08:04:07 2021

         ------------------------------------------------------------
                                   SCF GRAD
                          Rob Parrish, Justin Turney,
                       Andy Simmonett, and Alex Sokolov
         ------------------------------------------------------------

  ==> Geometry <==

    Molecular point group: c2v
    Full point group: C2v

    Geometry (in Angstrom), charge = 0, multiplicity = 2:

       Center              X                  Y                   Z               Mass
    ------------   -----------------  -----------------  -----------------  -----------------
         AU          -0.000153932119     0.000000000000     0.000000000000   196.966568790000
         AU           0.000076966060     0.000000000000     2.530369745964   196.966568790000
         AU           0.000076966060     0.000000000000    -2.530369745964   196.966568790000

  Nuclear repulsion =  188.740175937022258

  ==> Basis Set <==

  Basis Set: DEF2-TZVPPD
    Blend: DEF2-TZVPPD
    Number of shells: 51
    Number of basis functions: 177
    Number of Cartesian functions: 222
    Spherical Harmonics?: true
    Max angular momentum: 4

  Core potential: DEF2-TZVPPD
    Number of shells: 12
    Number of ECP primitives: 42
    Number of ECP core electrons: 180
    Max angular momentum: 3

  ==> DFJKGrad: Density-Fitted SCF Gradients <==

    Gradient:                    1
    J tasked:                  Yes
    K tasked:                   No
    wK tasked:                  No
    OpenMP threads:             28
    Integrals threads:          28
    Memory [MiB]:            85830
    Schwarz Cutoff:          1E-12
    Fitting Condition:       1E-10

   => Auxiliary Basis Set <=

  Basis Set: (DEF2-TZVPPD AUX)
    Blend: DEF2-UNIVERSAL-JKFIT
    Number of shells: 153
    Number of basis functions: 741
    Number of Cartesian functions: 1095
    Spherical Harmonics?: true
    Max angular momentum: 6

  ==> DFT Potential <==

   => Composite Functional: SCAN-D3BJ <=

    SCAN Meta-GGA XC Functional
(10.1103/PhysRevLett.115.036402)
    J. Sun, A. Ruzsinszky, J. P. Perdew  Phys. Rev. Lett. 115, 036402, 2015

    Deriv               =              1
    GGA                 =           TRUE
    Meta                =           TRUE

    Exchange Hybrid     =          FALSE
    MP2 Hybrid          =          FALSE

   => Exchange Functionals <=

    1.0000   XC_MGGA_X_SCAN

   => Correlation Functionals <=

    1.0000   XC_MGGA_C_SCAN

   => LibXC Density Thresholds  <==

    XC_MGGA_C_SCAN:  1.00E-15
    XC_MGGA_X_SCAN:  1.00E-15

   => Molecular Quadrature <=

    Radial Scheme          =       TREUTLER
    Pruning Scheme         =           NONE
    Nuclear Scheme         =       TREUTLER

    BS radius alpha        =              1
    Pruning alpha          =              1
    Radial Points          =             75
    Spherical Points       =            302
    Total Points           =          63834
    Total Blocks           =            605
    Max Points             =            255
    Max Functions          =            171
    Weights Tolerance      =       1.00E-15

  -Total Gradient:
     Atom            X                  Y                   Z
    ------   -----------------  -----------------  -----------------
       1        0.000009126980     0.000000000000     0.000000000000
       2       -0.000003641994     0.000000000000    -0.050050203679
       3       -0.000003641994     0.000000000000     0.050050203679

*** tstop() called on compute505.bc4.acrc.priv at Fri Nov  5 08:04:20 2021
Module time:
	user time   =     105.58 seconds =       1.76 minutes
	system time =       3.10 seconds =       0.05 minutes
	total time  =         13 seconds =       0.22 minutes
Total time:
	user time   =   17988.55 seconds =     299.81 minutes
	system time =     268.87 seconds =       4.48 minutes
	total time  =       2587 seconds =      43.12 minutes

  ==> Adding ECP gradient terms (computed numerically) <==

  -ECP Gradient:
     Atom            X                  Y                   Z
    ------   -----------------  -----------------  -----------------
       1       -0.000002958534     0.000000000000     0.000000000000
       2        0.000001454839    -0.000000000000     0.050079743114
       3        0.000001454839     0.000000000000    -0.050079743114

  -Total Gradient:
     Atom            X                  Y                   Z
    ------   -----------------  -----------------  -----------------
       1        0.000006168446     0.000000000000     0.000000000000
       2       -0.000002187155    -0.000000000000     0.000029539435
       3       -0.000002187155     0.000000000000    -0.000029539435

         ----------------------------------------------------------
                                   FINDIF
                     R. A. King and Jonathon Misiewicz
         ---------------------------------------------------------

  Computing second-derivative from gradients using projected,
  symmetry-adapted, cartesian coordinates.

  6 gradients passed in, including the reference geometry.
  Generating complete list of displacements from unique ones.

    Operation 3 takes plus displacements of irrep B1u to minus ones.
    Operation 2 takes plus displacements of irrep B2u to minus ones.
    Operation 2 takes plus displacements of irrep B3u to minus ones.

-------------------------------------------------------------

  ==> Harmonic Vibrational Analysis <==

  non-mass-weighted Hessian:       Symmetric? True   Hermitian? True   Lin Dep Dim?  5 (0)
  projection of translations (True) and rotations (True) removed 5 degrees of freedom (5)
  total projector:                 Symmetric? True   Hermitian? True   Lin Dep Dim?  5 (5)
  mass-weighted Hessian:           Symmetric? True   Hermitian? True   Lin Dep Dim?  5 (0)
  pre-proj  low-frequency mode:    0.0000i [cm^-1]
  pre-proj  low-frequency mode:    0.0000i [cm^-1]
  pre-proj  low-frequency mode:    0.0000i [cm^-1]
  pre-proj  low-frequency mode:    0.0000i [cm^-1]
  pre-proj  low-frequency mode:    0.0000  [cm^-1]
  pre-proj  low-frequency mode:    0.0000  [cm^-1]
  pre-proj  low-frequency mode:    0.0000  [cm^-1]
  pre-proj  all modes:['50.6875i' '50.6859i' '0.0000i' '0.0000i' '0.0000' '0.0000' '0.0000'
 '112.1949' '191.7216']
  projected mass-weighted Hessian: Symmetric? True   Hermitian? True   Lin Dep Dim?  5 (5)
  post-proj low-frequency mode:   50.6875i [cm^-1] (V)
  post-proj low-frequency mode:   50.6859i [cm^-1] (V)
  post-proj low-frequency mode:    0.0000i [cm^-1] (TR)
  post-proj low-frequency mode:    0.0000  [cm^-1] (TR)
  post-proj low-frequency mode:    0.0000  [cm^-1] (TR)
  post-proj low-frequency mode:    0.0000  [cm^-1] (TR)
  post-proj low-frequency mode:    0.0000  [cm^-1] (TR)
  post-proj  all modes:['50.6875i' '50.6859i' '0.0000i' '0.0000' '0.0000' '0.0000' '0.0000'
 '112.1949' '191.7216']

  Vibration                       1                   2                   8
  Freq [cm^-1]                 50.6875i            50.6859i            112.1949
  Irrep                          B2u                 B3u                  Ag
  Reduced mass [u]             196.9666            196.9666            196.9666
  Force const [mDyne/A]        -0.2982             -0.2981              1.4608
  Turning point v=0 [a0]        0.0000              0.0000              0.0738
  RMS dev v=0 [a0 u^1/2]        0.0000              0.0000              0.7325
  Char temp [K]                 0.0000              0.0000             161.4235
  ----------------------------------------------------------------------------------
      1   AU              -0.00  0.82  0.00    0.82  0.00  0.00   -0.00  0.00  0.00
      2   AU               0.00 -0.41  0.00   -0.41  0.00 -0.00   -0.00  0.00  0.71
      3   AU              -0.00 -0.41  0.00   -0.41  0.00  0.00    0.00 -0.00 -0.71

  Vibration                       9
  Freq [cm^-1]                 191.7216
  Irrep                          B1u
  Reduced mass [u]             196.9666
  Force const [mDyne/A]         4.2656

  ==> Thermochemistry Components <==

  Entropy, S
    Electronic S            1.377 [cal/(mol K)]        5.763 [J/(mol K)]       0.00219507 [mEh/K] (multiplicity = 2)
    Translational S        45.013 [cal/(mol K)]      188.336 [J/(mol K)]       0.07173329 [mEh/K] (mol. weight = 590.8997 [u], P = 101325.00 [Pa])
    Rotational S           21.161 [cal/(mol K)]       88.539 [J/(mol K)]       0.03372262 [mEh/K] (symmetry no. = 2)
    Vibrational S           5.442 [cal/(mol K)]       22.768 [J/(mol K)]       0.00867189 [mEh/K]
  Total S                  72.994 [cal/(mol K)]      305.406 [J/(mol K)]       0.11632287 [mEh/K]
  Correction S              0.000 [cal/(mol K)]        0.000 [J/(mol K)]       0.00000000 [mEh/K]

  Constant volume heat capacity, Cv
    Electronic Cv           0.000 [cal/(mol K)]        0.000 [J/(mol K)]       0.00000000 [mEh/K]
    Translational Cv        2.981 [cal/(mol K)]       12.472 [J/(mol K)]       0.00475022 [mEh/K]
    Rotational Cv           1.987 [cal/(mol K)]        8.314 [J/(mol K)]       0.00316681 [mEh/K]
    Vibrational Cv          3.791 [cal/(mol K)]       15.860 [J/(mol K)]       0.00604084 [mEh/K]
  Total Cv                  8.759 [cal/(mol K)]       36.646 [J/(mol K)]       0.01395787 [mEh/K]
  Correction Cv             0.000 [cal/(mol K)]        0.000 [J/(mol K)]       0.00000000 [mEh/K]

  Constant pressure heat capacity, Cp
    Electronic Cp           0.000 [cal/(mol K)]        0.000 [J/(mol K)]       0.00000000 [mEh/K]
    Translational Cp        4.968 [cal/(mol K)]       20.786 [J/(mol K)]       0.00791703 [mEh/K]
    Rotational Cp           1.987 [cal/(mol K)]        8.314 [J/(mol K)]       0.00316681 [mEh/K]
    Vibrational Cp          3.791 [cal/(mol K)]       15.860 [J/(mol K)]       0.00604084 [mEh/K]
  Total Cp                 10.746 [cal/(mol K)]       44.961 [J/(mol K)]       0.01712468 [mEh/K]
  Correction Cp             0.000 [cal/(mol K)]        0.000 [J/(mol K)]       0.00000000 [mEh/K]

  ==> Thermochemistry Energy Analysis <==

  Raw electronic energy, E0
  Total E0, Electronic energy at well bottom at 0 [K]                 -407.35354843 [Eh]

  Zero-point energy, ZPE_vib = Sum_i nu_i / 2
    Electronic ZPE          0.000 [kcal/mol]        0.000 [kJ/mol]       0.00000000 [Eh]
    Translational ZPE       0.000 [kcal/mol]        0.000 [kJ/mol]       0.00000000 [Eh]
    Rotational ZPE          0.000 [kcal/mol]        0.000 [kJ/mol]       0.00000000 [Eh]
    Vibrational ZPE         0.434 [kcal/mol]        1.818 [kJ/mol]       0.00069237 [Eh]         151.958 [cm^-1]
  Correction ZPE            0.434 [kcal/mol]        1.818 [kJ/mol]       0.00069237 [Eh]         151.958 [cm^-1]
  Total ZPE, Electronic energy at 0 [K]                               -407.35285606 [Eh]

  Thermal Energy, E (includes ZPE)
    Electronic E            0.000 [kcal/mol]        0.000 [kJ/mol]       0.00000000 [Eh]
    Translational E         0.889 [kcal/mol]        3.718 [kJ/mol]       0.00141628 [Eh]
    Rotational E            0.592 [kcal/mol]        2.479 [kJ/mol]       0.00094418 [Eh]
    Vibrational E           1.241 [kcal/mol]        5.193 [kJ/mol]       0.00197773 [Eh]
  Correction E              2.722 [kcal/mol]       11.390 [kJ/mol]       0.00433819 [Eh]
  Total E, Electronic energy at  298.15 [K]                           -407.34921024 [Eh]

  Enthalpy, H_trans = E_trans + k_B * T
    Electronic H            0.000 [kcal/mol]        0.000 [kJ/mol]       0.00000000 [Eh]
    Translational H         1.481 [kcal/mol]        6.197 [kJ/mol]       0.00236046 [Eh]
    Rotational H            0.592 [kcal/mol]        2.479 [kJ/mol]       0.00094418 [Eh]
    Vibrational H           1.241 [kcal/mol]        5.193 [kJ/mol]       0.00197773 [Eh]
  Correction H              3.315 [kcal/mol]       13.869 [kJ/mol]       0.00528238 [Eh]
  Total H, Enthalpy at  298.15 [K]                                    -407.34826606 [Eh]

  Gibbs free energy, G = H - T * S
    Electronic G           -0.411 [kcal/mol]       -1.718 [kJ/mol]      -0.00065446 [Eh]
    Translational G       -11.940 [kcal/mol]      -49.955 [kJ/mol]      -0.01902682 [Eh]
    Rotational G           -5.717 [kcal/mol]      -23.919 [kJ/mol]      -0.00911021 [Eh]
    Vibrational G          -0.381 [kcal/mol]       -1.596 [kJ/mol]      -0.00060780 [Eh]
  Correction G            -18.448 [kcal/mol]      -77.188 [kJ/mol]      -0.02939929 [Eh]
  Total G, Free enthalpy at  298.15 [K]                               -407.38294772 [Eh]

*** Psi4 exiting successfully. Buy a developer a beer!
