                         Program Version 4.2.0 -  RELEASE  -
|  1> #
|  2> # Ag01N0_F TPSS-D3BJ/Def2-TZVPPD
|  3> #
|  4> ! tpss d3bj def2-tzvppd def2/j grid4 nofinalgrid
|  5>
|  6> *xyz 0 1
|  7> Ag       0.000000    0.000000    0.317712
|  8> F        0.000000    0.000000   -1.659163
|  9> *
| 10>
| 11> %maxcore 5000
| 12>
| 13> %pal
| 14> nprocs = 24
| 15> end
| 16>
| 17>
| 18>                          ****END OF INPUT****

CARTESIAN COORDINATES (ANGSTROEM)
---------------------------------
  Ag     0.000000    0.000000    0.317712
  F      0.000000    0.000000   -1.659163

 Total Charge           Charge          ....    0
 Multiplicity           Mult            ....    1
 Number of Electrons    NEL             ....   28
 Basis Dimension        Dim             ....   96

ORBITAL ENERGIES
----------------

  NO   OCC          E(Eh)            E(eV)
   0   2.0000     -24.306888      -661.4240
   1   2.0000      -3.620432       -98.5170
   2   2.0000      -2.245605       -61.1060
   3   2.0000      -2.242203       -61.0134
   4   2.0000      -2.242203       -61.0134
   5   2.0000      -0.972473       -26.4623
   6   2.0000      -0.352339        -9.5876
   7   2.0000      -0.319090        -8.6829
   8   2.0000      -0.319090        -8.6829
   9   2.0000      -0.299390        -8.1468
  10   2.0000      -0.299390        -8.1468
  11   2.0000      -0.242857        -6.6085
  12   2.0000      -0.242651        -6.6029
  13   2.0000      -0.242651        -6.6029
  14   0.0000      -0.143973        -3.9177
  15   0.0000      -0.014523        -0.3952
  16   0.0000      -0.014523        -0.3952
  17   0.0000       0.025279         0.6879
  18   0.0000       0.074396         2.0244

MULLIKEN ATOMIC CHARGES
-----------------------
   0 Ag:    0.650421
   1 F :   -0.650421
Sum of atomic charges:    0.0000000

LOEWDIN ATOMIC CHARGES
----------------------
   0 Ag:    0.683185
   1 F :   -0.683185

  Mayer bond orders larger than 0.100000
B(  0-Ag,  1-F ) :   0.5763

Dispersion correction           -0.000607152
FINAL SINGLE POINT ENERGY      -246.816733883737

DIPOLE MOMENT
-------------
                                X             Y             Z
Electronic contribution:      0.00000       0.00000      20.04279
Nuclear contribution   :      0.00000       0.00000     -17.95816
                        -----------------------------------------
Total Dipole Moment    :      0.00000       0.00000       2.08463
                        -----------------------------------------
Magnitude (a.u.)       :      2.08463
Magnitude (Debye)      :      5.29872

Rotational constants in cm-1:     0.000000     0.267044     0.267044
Rotational constants in MHz :     0.000000  8005.762772  8005.762772

                             ****ORCA TERMINATED NORMALLY****
TOTAL RUN TIME: 0 days 0 hours 0 minutes 4 seconds 29 msec
