                         Program Version 4.2.0 -  RELEASE  -
|  1> #
|  2> # Ag01N0_H TPSS-D3BJ/Def2-TZVPPD
|  3> #
|  4> ! tpss d3bj def2-tzvppd def2/j grid4 nofinalgrid
|  5>
|  6> *xyz 0 1
|  7> Ag       0.000000    0.000000    0.033547
|  8> H        0.000000    0.000000   -1.576706
|  9> *
| 10>
| 11> %maxcore 5000
| 12>
| 13> %pal
| 14> nprocs = 24
| 15> end
| 16>
| 17>
| 18>                          ****END OF INPUT****

CARTESIAN COORDINATES (ANGSTROEM)
---------------------------------
  Ag     0.000000    0.000000    0.033547
  H      0.000000    0.000000   -1.576706

 Total Charge           Charge          ....    0
 Multiplicity           Mult            ....    1
 Number of Electrons    NEL             ....   20
 Basis Dimension        Dim             ....   73

ORBITAL ENERGIES
----------------

  NO   OCC          E(Eh)            E(eV)
   0   2.0000      -3.605725       -98.1168
   1   2.0000      -2.233919       -60.7880
   2   2.0000      -2.224266       -60.5253
   3   2.0000      -2.224266       -60.5253
   4   2.0000      -0.343202        -9.3390
   5   2.0000      -0.287040        -7.8108
   6   2.0000      -0.287040        -7.8108
   7   2.0000      -0.277853        -7.5608
   8   2.0000      -0.277853        -7.5608
   9   2.0000      -0.214272        -5.8306
  10   0.0000      -0.099378        -2.7042
  11   0.0000      -0.016719        -0.4549
  12   0.0000      -0.016719        -0.4549
  13   0.0000       0.063602         1.7307
  14   0.0000       0.082321         2.2401

MULLIKEN ATOMIC CHARGES
-----------------------
   0 Ag:   -0.073063
   1 H :    0.073063
Sum of atomic charges:   -0.0000000

LOEWDIN ATOMIC CHARGES
----------------------
   0 Ag:    0.309372
   1 H :   -0.309372

  Mayer bond orders larger than 0.100000
B(  0-Ag,  1-H ) :   1.0323

Dispersion correction           -0.000515885
FINAL SINGLE POINT ENERGY      -147.506560716312

DIPOLE MOMENT
-------------
                                X             Y             Z
Electronic contribution:      0.00000       0.00000       3.53035
Nuclear contribution   :      0.00000       0.00000      -2.47950
                        -----------------------------------------
Total Dipole Moment    :      0.00000       0.00000       1.05084
                        -----------------------------------------
Magnitude (a.u.)       :      1.05084
Magnitude (Debye)      :      2.67103

Rotational constants in cm-1:     0.000000     6.510099     6.510099
Rotational constants in MHz :     0.000000 195167.857171 195167.857171

                             ****ORCA TERMINATED NORMALLY****
TOTAL RUN TIME: 0 days 0 hours 0 minutes 3 seconds 972 msec
