                         Program Version 4.2.0 -  RELEASE  -
|  1> #
|  2> # Ag01N0 TPSS-D3BJ/Def2-TZVPPD
|  3> #
|  4> ! tpss d3bj def2-tzvppd def2/j grid4 nofinalgrid
|  5>
|  6> *xyz 0 2
|  7> Ag       0.000000    0.000000    0.000000
|  8> *
|  9>
| 10> %maxcore 5000
| 11>
| 12> %pal
| 13> nprocs = 24
| 14> end
| 15>
| 16>
| 17>                          ****END OF INPUT****

CARTESIAN COORDINATES (ANGSTROEM)
---------------------------------
  Ag     0.000000    0.000000    0.000000

 Total Charge           Charge          ....    0
 Multiplicity           Mult            ....    2
 Number of Electrons    NEL             ....   19
 Basis Dimension        Dim             ....   56

ORBITAL ENERGIES
----------------
                 SPIN UP ORBITALS
  NO   OCC          E(Eh)            E(eV)
   0   1.0000      -3.580956       -97.4428
   1   1.0000      -2.203942       -59.9723
   2   1.0000      -2.203942       -59.9723
   3   1.0000      -2.203942       -59.9723
   4   1.0000      -0.267635        -7.2827
   5   1.0000      -0.267635        -7.2827
   6   1.0000      -0.267635        -7.2827
   7   1.0000      -0.267635        -7.2827
   8   1.0000      -0.267635        -7.2827
   9   1.0000      -0.171618        -4.6700
  10   0.0000      -0.025904        -0.7049
  11   0.0000      -0.025904        -0.7049
  12   0.0000      -0.025904        -0.7049
  13   0.0000       0.077431         2.1070
  14   0.0000       0.172666         4.6985

                 SPIN DOWN ORBITALS
  NO   OCC          E(Eh)            E(eV)
   0   1.0000      -3.581476       -97.4569
   1   1.0000      -2.203960       -59.9728
   2   1.0000      -2.203960       -59.9728
   3   1.0000      -2.203960       -59.9728
   4   1.0000      -0.259398        -7.0586
   5   1.0000      -0.259398        -7.0586
   6   1.0000      -0.259398        -7.0586
   7   1.0000      -0.259398        -7.0586
   8   1.0000      -0.259398        -7.0586
   9   0.0000      -0.136765        -3.7216
  10   0.0000       0.003558         0.0968
  11   0.0000       0.003558         0.0968
  12   0.0000       0.003558         0.0968
  13   0.0000       0.108466         2.9515

MULLIKEN ATOMIC CHARGES AND SPIN POPULATIONS
--------------------------------------------
   0 Ag:    0.000000    1.000000
Sum of atomic charges         :    0.0000000

LOEWDIN ATOMIC CHARGES AND SPIN POPULATIONS
-------------------------------------------
   0 Ag:    0.000000    1.000000

Dispersion correction            0.000000000
FINAL SINGLE POINT ENERGY      -146.912205120930

DIPOLE MOMENT
-------------
                                X             Y             Z
Electronic contribution:      0.00000       0.00000      -0.00000
Nuclear contribution   :      0.00000       0.00000       0.00000
                        -----------------------------------------
Total Dipole Moment    :      0.00000       0.00000      -0.00000
                        -----------------------------------------
Magnitude (a.u.)       :      0.00000
Magnitude (Debye)      :      0.00000

Rotational constants in cm-1:     0.000000     0.000000     0.000000
Rotational constants in MHz :     0.000000     0.000000     0.000000

                             ****ORCA TERMINATED NORMALLY****
TOTAL RUN TIME: 0 days 0 hours 0 minutes 3 seconds 633 msec
