                         Program Version 4.2.0 -  RELEASE  -
|  1> #
|  2> # Ag02N0 TPSS-D3BJ/Def2-TZVPPD
|  3> #
|  4> ! tpss d3bj def2-tzvppd def2/j grid4 nofinalgrid
|  5>
|  6> *xyz 0 1
|  7> Ag       0.000000    0.000000    1.261821
|  8> Ag       0.000000    0.000000   -1.261821
|  9> *
| 10>
| 11> %maxcore 5000
| 12>
| 13> %pal
| 14> nprocs = 24
| 15> end
| 16>
| 17>
| 18>                          ****END OF INPUT****

CARTESIAN COORDINATES (ANGSTROEM)
---------------------------------
  Ag     0.000000    0.000000    1.261821
  Ag     0.000000    0.000000   -1.261821

 Total Charge           Charge          ....    0
 Multiplicity           Mult            ....    1
 Number of Electrons    NEL             ....   38
 Basis Dimension        Dim             ....  112

ORBITAL ENERGIES
----------------

  NO   OCC          E(Eh)            E(eV)
   0   2.0000      -3.580763       -97.4375
   1   2.0000      -3.580136       -97.4205
   2   2.0000      -2.208892       -60.1070
   3   2.0000      -2.202323       -59.9282
   4   2.0000      -2.201587       -59.9082
   5   2.0000      -2.201587       -59.9082
   6   2.0000      -2.200957       -59.8911
   7   2.0000      -2.200957       -59.8911
   8   2.0000      -0.303205        -8.2506
   9   2.0000      -0.283759        -7.7215
  10   2.0000      -0.283759        -7.7215
  11   2.0000      -0.262334        -7.1385
  12   2.0000      -0.262329        -7.1383
  13   2.0000      -0.254329        -6.9206
  14   2.0000      -0.254323        -6.9205
  15   2.0000      -0.244037        -6.6406
  16   2.0000      -0.244037        -6.6406
  17   2.0000      -0.238210        -6.4820
  18   2.0000      -0.187475        -5.1014
  19   0.0000      -0.105868        -2.8808
  20   0.0000      -0.030816        -0.8385
  21   0.0000      -0.030816        -0.8385
  22   0.0000      -0.012470        -0.3393
  23   0.0000       0.032647         0.8884

MULLIKEN ATOMIC CHARGES
-----------------------
   0 Ag:   -0.000000
   1 Ag:    0.000000
Sum of atomic charges:    0.0000000

LOEWDIN ATOMIC CHARGES
----------------------
   0 Ag:   -0.000000
   1 Ag:    0.000000

  Mayer bond orders larger than 0.100000
B(  0-Ag,  1-Ag) :   1.0681

Dispersion correction           -0.001943686
FINAL SINGLE POINT ENERGY      -293.890736828216

DIPOLE MOMENT
-------------
                                X             Y             Z
Electronic contribution:      0.00000      -0.00000       0.00000
Nuclear contribution   :      0.00000       0.00000       0.00000
                        -----------------------------------------
Total Dipole Moment    :      0.00000      -0.00000       0.00000
                        -----------------------------------------
Magnitude (a.u.)       :      0.00000
Magnitude (Debye)      :      0.00000

Rotational constants in cm-1:     0.000000     0.049076     0.049076
Rotational constants in MHz :     0.000000  1471.266775  1471.266775

                             ****ORCA TERMINATED NORMALLY****
TOTAL RUN TIME: 0 days 0 hours 0 minutes 4 seconds 305 msec
