                         Program Version 4.2.0 -  RELEASE  -
|  1> #
|  2> # Ag03C1_LIN TPSS-D3BJ/Def2-TZVPPD
|  3> #
|  4> ! tpss d3bj def2-tzvppd def2/j grid4 nofinalgrid
|  5>
|  6> *xyz 1 1
|  7> Ag       0.000000    0.000000    0.000000
|  8> Ag       0.000000    0.000000    2.629319
|  9> Ag       0.000000    0.000000   -2.629319
| 10> *
| 11>
| 12> %maxcore 5000
| 13>
| 14> %pal
| 15> nprocs = 24
| 16> end
| 17>
| 18>
| 19>                          ****END OF INPUT****

CARTESIAN COORDINATES (ANGSTROEM)
---------------------------------
  Ag     0.000000    0.000000    0.000000
  Ag     0.000000    0.000000    2.629319
  Ag     0.000000    0.000000   -2.629319

 Total Charge           Charge          ....    1
 Multiplicity           Mult            ....    1
 Number of Electrons    NEL             ....   56
 Basis Dimension        Dim             ....  168

ORBITAL ENERGIES
----------------

  NO   OCC          E(Eh)            E(eV)
   0   2.0000      -3.787185      -103.0546
   1   2.0000      -3.787185      -103.0545
   2   2.0000      -3.757271      -102.2405
   3   2.0000      -2.412703       -65.6530
   4   2.0000      -2.412378       -65.6441
   5   2.0000      -2.409289       -65.5601
   6   2.0000      -2.409289       -65.5601
   7   2.0000      -2.409287       -65.5600
   8   2.0000      -2.409287       -65.5600
   9   2.0000      -2.384310       -64.8804
  10   2.0000      -2.376756       -64.6748
  11   2.0000      -2.376756       -64.6748
  12   2.0000      -0.508127       -13.8269
  13   2.0000      -0.482238       -13.1224
  14   2.0000      -0.482238       -13.1224
  15   2.0000      -0.474760       -12.9189
  16   2.0000      -0.470845       -12.8124
  17   2.0000      -0.470845       -12.8124
  18   2.0000      -0.466308       -12.6889
  19   2.0000      -0.466305       -12.6888
  20   2.0000      -0.465824       -12.6757
  21   2.0000      -0.465821       -12.6756
  22   2.0000      -0.430877       -11.7248
  23   2.0000      -0.430873       -11.7247
  24   2.0000      -0.429271       -11.6811
  25   2.0000      -0.429271       -11.6811
  26   2.0000      -0.425813       -11.5870
  27   2.0000      -0.371872       -10.1191
  28   0.0000      -0.340051        -9.2533
  29   0.0000      -0.248880        -6.7724
  30   0.0000      -0.194537        -5.2936
  31   0.0000      -0.194537        -5.2936
  32   0.0000      -0.173728        -4.7274

MULLIKEN ATOMIC CHARGES
-----------------------
   0 Ag:   -0.059328
   1 Ag:    0.529666
   2 Ag:    0.529663
Sum of atomic charges:    1.0000000

LOEWDIN ATOMIC CHARGES
----------------------
   0 Ag:    0.143358
   1 Ag:    0.428321
   2 Ag:    0.428320

  Mayer bond orders larger than 0.100000
B(  0-Ag,  1-Ag) :   0.6006 B(  0-Ag,  2-Ag) :   0.6006 B(  1-Ag,  2-Ag) :   0.2917

Dispersion correction           -0.004412018
FINAL SINGLE POINT ENERGY      -440.578755086029

DIPOLE MOMENT
-------------
                                X             Y             Z
Electronic contribution:      0.00000      -0.00000       0.00000
Nuclear contribution   :      0.00000       0.00000       0.00000
                        -----------------------------------------
Total Dipole Moment    :      0.00000      -0.00000       0.00000
                        -----------------------------------------
Magnitude (a.u.)       :      0.00000
Magnitude (Debye)      :      0.00001

Rotational constants in cm-1:     0.000000     0.011303     0.011303
Rotational constants in MHz :     0.000000   338.844445   338.844445

                             ****ORCA TERMINATED NORMALLY****
TOTAL RUN TIME: 0 days 0 hours 0 minutes 4 seconds 867 msec
