                         Program Version 4.2.0 -  RELEASE  -
|  1> #
|  2> # Ag03C1_D3H TPSS-D3BJ/Def2-TZVPPD
|  3> #
|  4> ! tpss d3bj def2-tzvppd def2/j grid4 nofinalgrid
|  5>
|  6> *xyz 1 1
|  7> Ag       0.000000    1.529877    0.000000
|  8> Ag       1.324912   -0.764938    0.000000
|  9> Ag      -1.324912   -0.764938    0.000000
| 10> *
| 11>
| 12> %maxcore 5000
| 13>
| 14> %pal
| 15> nprocs = 24
| 16> end
| 17>
| 18>
| 19>                          ****END OF INPUT****

CARTESIAN COORDINATES (ANGSTROEM)
---------------------------------
  Ag     0.000000    1.529877    0.000000
  Ag     1.324912   -0.764938    0.000000
  Ag    -1.324912   -0.764938    0.000000

 Total Charge           Charge          ....    1
 Multiplicity           Mult            ....    1
 Number of Electrons    NEL             ....   56
 Basis Dimension        Dim             ....  168

ORBITAL ENERGIES
----------------

  NO   OCC          E(Eh)            E(eV)
   0   2.0000      -3.788709      -103.0960
   1   2.0000      -3.788220      -103.0827
   2   2.0000      -3.788217      -103.0826
   3   2.0000      -2.416086       -65.7450
   4   2.0000      -2.413099       -65.6638
   5   2.0000      -2.413094       -65.6636
   6   2.0000      -2.410394       -65.5901
   7   2.0000      -2.410383       -65.5899
   8   2.0000      -2.410106       -65.5823
   9   2.0000      -2.408489       -65.5383
  10   2.0000      -2.407952       -65.5237
  11   2.0000      -2.407949       -65.5236
  12   2.0000      -0.519887       -14.1468
  13   2.0000      -0.500286       -13.6135
  14   2.0000      -0.500282       -13.6134
  15   2.0000      -0.494274       -13.4499
  16   2.0000      -0.480260       -13.0685
  17   2.0000      -0.476115       -12.9557
  18   2.0000      -0.476106       -12.9555
  19   2.0000      -0.458126       -12.4662
  20   2.0000      -0.458126       -12.4662
  21   2.0000      -0.453870       -12.3504
  22   2.0000      -0.451762       -12.2931
  23   2.0000      -0.451736       -12.2924
  24   2.0000      -0.451295       -12.2804
  25   2.0000      -0.451281       -12.2800
  26   2.0000      -0.436467       -11.8769
  27   2.0000      -0.408197       -11.1076
  28   0.0000      -0.289585        -7.8800
  29   0.0000      -0.289583        -7.8800
  30   0.0000      -0.212588        -5.7848
  31   0.0000      -0.183153        -4.9839
  32   0.0000      -0.170073        -4.6279

MULLIKEN ATOMIC CHARGES
-----------------------
   0 Ag:    0.333350
   1 Ag:    0.333323
   2 Ag:    0.333327
Sum of atomic charges:    1.0000000

LOEWDIN ATOMIC CHARGES
----------------------
   0 Ag:    0.333342
   1 Ag:    0.333329
   2 Ag:    0.333329

  Mayer bond orders larger than 0.100000
B(  0-Ag,  1-Ag) :   0.5774 B(  0-Ag,  2-Ag) :   0.5774 B(  1-Ag,  2-Ag) :   0.5773

Dispersion correction           -0.005737657
FINAL SINGLE POINT ENERGY      -440.629781172910

DIPOLE MOMENT
-------------
                                X             Y             Z
Electronic contribution:      0.00000       0.00001      -0.00000
Nuclear contribution   :      0.00000       0.00000       0.00000
                        -----------------------------------------
Total Dipole Moment    :      0.00000       0.00001      -0.00000
                        -----------------------------------------
Magnitude (a.u.)       :      0.00001
Magnitude (Debye)      :      0.00002

Rotational constants in cm-1:     0.044514     0.044514     0.022257
Rotational constants in MHz :  1334.482437  1334.482320   667.241189

                             ****ORCA TERMINATED NORMALLY****
TOTAL RUN TIME: 0 days 0 hours 0 minutes 5 seconds 551 msec
