                         Program Version 4.2.0 -  RELEASE  -
|  1> #
|  2> # Ag03N0_LIN TPSS-D3BJ/Def2-TZVPPD
|  3> #
|  4> ! tpss d3bj def2-tzvppd def2/j grid4 nofinalgrid
|  5>
|  6> *xyz 0 2
|  7> Ag       0.000000    0.000000    0.000000
|  8> Ag       0.000000    0.000000    2.592532
|  9> Ag       0.000000    0.000000   -2.592532
| 10> *
| 11>
| 12> %maxcore 5000
| 13>
| 14> %pal
| 15> nprocs = 24
| 16> end
| 17>
| 18>
| 19>                          ****END OF INPUT****

CARTESIAN COORDINATES (ANGSTROEM)
---------------------------------
  Ag     0.000000    0.000000    0.000000
  Ag     0.000000    0.000000    2.592532
  Ag     0.000000    0.000000   -2.592532

 Total Charge           Charge          ....    0
 Multiplicity           Mult            ....    2
 Number of Electrons    NEL             ....   57
 Basis Dimension        Dim             ....  168

ORBITAL ENERGIES
----------------
                 SPIN UP ORBITALS
  NO   OCC          E(Eh)            E(eV)
   0   1.0000      -3.590762       -97.7096
   1   1.0000      -3.590755       -97.7094
   2   1.0000      -3.579866       -97.4131
   3   1.0000      -2.217058       -60.3292
   4   1.0000      -2.215973       -60.2997
   5   1.0000      -2.211827       -60.1869
   6   1.0000      -2.211827       -60.1869
   7   1.0000      -2.211818       -60.1866
   8   1.0000      -2.211818       -60.1866
   9   1.0000      -2.204476       -59.9869
  10   1.0000      -2.199754       -59.8583
  11   1.0000      -2.199754       -59.8583
  12   1.0000      -0.322141        -8.7659
  13   1.0000      -0.294925        -8.0253
  14   1.0000      -0.294925        -8.0253
  15   1.0000      -0.280709        -7.6385
  16   1.0000      -0.277059        -7.5392
  17   1.0000      -0.277059        -7.5392
  18   1.0000      -0.272754        -7.4220
  19   1.0000      -0.272750        -7.4219
  20   1.0000      -0.271412        -7.3855
  21   1.0000      -0.271409        -7.3854
  22   1.0000      -0.253749        -6.9049
  23   1.0000      -0.253744        -6.9047
  24   1.0000      -0.243453        -6.6247
  25   1.0000      -0.243453        -6.6247
  26   1.0000      -0.238839        -6.4991
  27   1.0000      -0.204266        -5.5584
  28   1.0000      -0.174925        -4.7599
  29   0.0000      -0.090943        -2.4747
  30   0.0000      -0.046247        -1.2584
  31   0.0000      -0.046247        -1.2584
  32   0.0000      -0.023521        -0.6400
  33   0.0000      -0.011235        -0.3057

                 SPIN DOWN ORBITALS
  NO   OCC          E(Eh)            E(eV)
   0   1.0000      -3.590917       -97.7138
   1   1.0000      -3.590909       -97.7136
   2   1.0000      -3.579981       -97.4162
   3   1.0000      -2.216513       -60.3144
   4   1.0000      -2.215397       -60.2840
   5   1.0000      -2.211983       -60.1911
   6   1.0000      -2.211983       -60.1911
   7   1.0000      -2.211974       -60.1909
   8   1.0000      -2.211974       -60.1909
   9   1.0000      -2.204393       -59.9846
  10   1.0000      -2.200014       -59.8654
  11   1.0000      -2.200014       -59.8654
  12   1.0000      -0.318600        -8.6696
  13   1.0000      -0.291601        -7.9349
  14   1.0000      -0.291601        -7.9349
  15   1.0000      -0.276963        -7.5366
  16   1.0000      -0.272851        -7.4246
  17   1.0000      -0.272851        -7.4246
  18   1.0000      -0.268389        -7.3032
  19   1.0000      -0.268385        -7.3031
  20   1.0000      -0.266687        -7.2569
  21   1.0000      -0.266683        -7.2568
  22   1.0000      -0.253778        -6.9056
  23   1.0000      -0.253773        -6.9055
  24   1.0000      -0.242115        -6.5883
  25   1.0000      -0.242115        -6.5883
  26   1.0000      -0.235344        -6.4040
  27   1.0000      -0.194753        -5.2995
  28   0.0000      -0.156872        -4.2687
  29   0.0000      -0.079785        -2.1711
  30   0.0000      -0.036843        -1.0026
  31   0.0000      -0.036843        -1.0026
  32   0.0000      -0.011268        -0.3066

MULLIKEN ATOMIC CHARGES AND SPIN POPULATIONS
--------------------------------------------
   0 Ag:   -0.033224   -0.090473
   1 Ag:    0.016615    0.545240
   2 Ag:    0.016610    0.545233
Sum of atomic charges         :   -0.0000000

LOEWDIN ATOMIC CHARGES AND SPIN POPULATIONS
-------------------------------------------
   0 Ag:   -0.177480    0.296872
   1 Ag:    0.088740    0.351564
   2 Ag:    0.088740    0.351564

  Mayer bond orders larger than 0.100000
B(  0-Ag,  1-Ag) :   0.5802 B(  0-Ag,  2-Ag) :   0.5802 B(  1-Ag,  2-Ag) :   0.2318

Dispersion correction           -0.004456635
FINAL SINGLE POINT ENERGY      -440.835218098715

DIPOLE MOMENT
-------------
                                X             Y             Z
Electronic contribution:     -0.00000       0.00000       0.00000
Nuclear contribution   :      0.00000       0.00000       0.00000
                        -----------------------------------------
Total Dipole Moment    :     -0.00000       0.00000       0.00000
                        -----------------------------------------
Magnitude (a.u.)       :      0.00000
Magnitude (Debye)      :      0.00000

Rotational constants in cm-1:     0.000000     0.011626     0.011626
Rotational constants in MHz :     0.000000   348.528806   348.528806

                             ****ORCA TERMINATED NORMALLY****
TOTAL RUN TIME: 0 days 0 hours 0 minutes 5 seconds 584 msec
