                         Program Version 4.2.0 -  RELEASE  -
|  1> #
|  2> # Ag03N0_D3H TPSS-D3BJ/Def2-TZVPPD
|  3> #
|  4> ! tpss d3bj def2-tzvppd def2/j grid4 nofinalgrid slowconv
|  5>
|  6> *xyz 0 2
|  7> Ag       0.000000    1.533951   -0.000000
|  8> Ag       1.328441   -0.766976    0.000000
|  9> Ag      -1.328441   -0.766976   -0.000000
| 10> *
| 11>
| 12> %maxcore 5000
| 13>
| 14> %pal
| 15> nprocs = 24
| 16> end
| 17>
| 18>
| 19>                          ****END OF INPUT****

CARTESIAN COORDINATES (ANGSTROEM)
---------------------------------
  Ag     0.000000    1.533951   -0.000000
  Ag     1.328441   -0.766976    0.000000
  Ag    -1.328441   -0.766976   -0.000000

 Total Charge           Charge          ....    0
 Multiplicity           Mult            ....    2
 Number of Electrons    NEL             ....   57
 Basis Dimension        Dim             ....  168

ORBITAL ENERGIES
----------------
                 SPIN UP ORBITALS
  NO   OCC          E(Eh)            E(eV)
   0   1.0000      -3.601043       -97.9894
   1   1.0000      -3.600727       -97.9808
   2   1.0000      -3.584051       -97.5270
   3   1.0000      -2.227398       -60.6106
   4   1.0000      -2.223820       -60.5132
   5   1.0000      -2.222889       -60.4879
   6   1.0000      -2.222109       -60.4667
   7   1.0000      -2.221488       -60.4497
   8   1.0000      -2.221138       -60.4402
   9   1.0000      -2.207373       -60.0657
  10   1.0000      -2.206525       -60.0426
  11   1.0000      -2.202922       -59.9446
  12   1.0000      -0.328223        -8.9314
  13   1.0000      -0.311414        -8.4740
  14   1.0000      -0.304195        -8.2776
  15   1.0000      -0.304105        -8.2751
  16   1.0000      -0.289987        -7.8909
  17   1.0000      -0.287923        -7.8348
  18   1.0000      -0.283271        -7.7082
  19   1.0000      -0.270591        -7.3632
  20   1.0000      -0.266989        -7.2651
  21   1.0000      -0.265678        -7.2295
  22   1.0000      -0.258832        -7.0432
  23   1.0000      -0.256448        -6.9783
  24   1.0000      -0.254538        -6.9263
  25   1.0000      -0.254353        -6.9213
  26   1.0000      -0.243833        -6.6350
  27   1.0000      -0.229313        -6.2399
  28   1.0000      -0.127355        -3.4655
  29   0.0000      -0.127753        -3.4763
  30   0.0000      -0.055359        -1.5064
  31   0.0000      -0.035762        -0.9731
  32   0.0000      -0.019835        -0.5397
  33   0.0000      -0.019629        -0.5341

                 SPIN DOWN ORBITALS
  NO   OCC          E(Eh)            E(eV)
   0   1.0000      -3.600823       -97.9834
   1   1.0000      -3.600507       -97.9748
   2   1.0000      -3.583926       -97.5236
   3   1.0000      -2.227013       -60.6001
   4   1.0000      -2.223620       -60.5078
   5   1.0000      -2.222526       -60.4780
   6   1.0000      -2.221562       -60.4518
   7   1.0000      -2.221415       -60.4478
   8   1.0000      -2.221067       -60.4383
   9   1.0000      -2.207265       -60.0627
  10   1.0000      -2.205951       -60.0270
  11   1.0000      -2.202510       -59.9333
  12   1.0000      -0.326365        -8.8808
  13   1.0000      -0.309131        -8.4119
  14   1.0000      -0.302611        -8.2345
  15   1.0000      -0.300643        -8.1809
  16   1.0000      -0.287310        -7.8181
  17   1.0000      -0.286051        -7.7838
  18   1.0000      -0.280964        -7.6454
  19   1.0000      -0.269443        -7.3319
  20   1.0000      -0.266370        -7.2483
  21   1.0000      -0.264446        -7.1959
  22   1.0000      -0.254884        -6.9358
  23   1.0000      -0.252765        -6.8781
  24   1.0000      -0.250061        -6.8045
  25   1.0000      -0.250026        -6.8036
  26   1.0000      -0.239718        -6.5231
  27   1.0000      -0.221440        -6.0257
  28   0.0000      -0.120922        -3.2904
  29   0.0000      -0.103896        -2.8272
  30   0.0000      -0.048103        -1.3089
  31   0.0000      -0.025664        -0.6984
  32   0.0000      -0.005843        -0.1590

MULLIKEN ATOMIC CHARGES AND SPIN POPULATIONS
--------------------------------------------
   0 Ag:   -0.097756    0.567174
   1 Ag:    0.048880    0.216405
   2 Ag:    0.048876    0.216421
Sum of atomic charges         :   -0.0000000

LOEWDIN ATOMIC CHARGES AND SPIN POPULATIONS
-------------------------------------------
   0 Ag:   -0.074873    0.478287
   1 Ag:    0.037440    0.260850
   2 Ag:    0.037433    0.260862

  Mayer bond orders larger than 0.100000
B(  0-Ag,  1-Ag) :   0.6053 B(  0-Ag,  2-Ag) :   0.6053 B(  1-Ag,  2-Ag) :   0.7538

Dispersion correction           -0.005735736
FINAL SINGLE POINT ENERGY      -440.837295005083

DIPOLE MOMENT
-------------
                                X             Y             Z
Electronic contribution:      0.00002      -0.45235      -0.00000
Nuclear contribution   :      0.00000       0.00000       0.00000
                        -----------------------------------------
Total Dipole Moment    :      0.00002      -0.45235      -0.00000
                        -----------------------------------------
Magnitude (a.u.)       :      0.45235
Magnitude (Debye)      :      1.14977

Rotational constants in cm-1:     0.044277     0.044277     0.022139
Rotational constants in MHz :  1327.402110  1327.401756   663.700966

                             ****ORCA TERMINATED NORMALLY****
TOTAL RUN TIME: 0 days 0 hours 0 minutes 7 seconds 622 msec
