                         Program Version 4.2.0 -  RELEASE  -
|  1> #
|  2> # Ag04C2_NH3_F TPSS-D3BJ/Def2-TZVPPD
|  3> #
|  4> ! tpss d3bj def2-tzvppd def2/j grid4 nofinalgrid
|  5>
|  6> *xyz 2 1
|  7> Ag       0.000000    1.593354   -0.403942
|  8> Ag       1.379885   -0.796677   -0.403942
|  9> Ag      -1.379885   -0.796677   -0.403942
| 10> Ag       0.000000    0.000000    1.894943
| 11> N        0.000000    0.000000   -3.082630
| 12> H        0.808649    0.466874   -3.509356
| 13> H       -0.000000   -0.933748   -3.509356
| 14> H       -0.808649    0.466874   -3.509356
| 15> *
| 16>
| 17> %maxcore 5000
| 18>
| 19> %pal
| 20> nprocs = 24
| 21> end
| 22>
| 23>
| 24>                          ****END OF INPUT****

CARTESIAN COORDINATES (ANGSTROEM)
---------------------------------
  Ag     0.000000    1.593354   -0.403942
  Ag     1.379885   -0.796677   -0.403942
  Ag    -1.379885   -0.796677   -0.403942
  Ag     0.000000    0.000000    1.894943
  N      0.000000    0.000000   -3.082630
  H      0.808649    0.466874   -3.509356
  H     -0.000000   -0.933748   -3.509356
  H     -0.808649    0.466874   -3.509356

 Total Charge           Charge          ....    2
 Multiplicity           Mult            ....    1
 Number of Electrons    NEL             ....   84
 Basis Dimension        Dim             ....  312

ORBITAL ENERGIES
----------------

  NO   OCC          E(Eh)            E(eV)
   0   2.0000     -14.407659      -392.0523
   1   2.0000      -3.944852      -107.3449
   2   2.0000      -3.944573      -107.3373
   3   2.0000      -3.944567      -107.3371
   4   2.0000      -3.939395      -107.1964
   5   2.0000      -2.570769       -69.9542
   6   2.0000      -2.568592       -69.8949
   7   2.0000      -2.568591       -69.8949
   8   2.0000      -2.567054       -69.8531
   9   2.0000      -2.567053       -69.8531
  10   2.0000      -2.566405       -69.8354
  11   2.0000      -2.566171       -69.8291
  12   2.0000      -2.565240       -69.8037
  13   2.0000      -2.565234       -69.8036
  14   2.0000      -2.562892       -69.7398
  15   2.0000      -2.560761       -69.6819
  16   2.0000      -2.560761       -69.6819
  17   2.0000      -1.107941       -30.1486
  18   2.0000      -0.725050       -19.7296
  19   2.0000      -0.725047       -19.7295
  20   2.0000      -0.682004       -18.5583
  21   2.0000      -0.657637       -17.8952
  22   2.0000      -0.654431       -17.8080
  23   2.0000      -0.654418       -17.8076
  24   2.0000      -0.645149       -17.5554
  25   2.0000      -0.645149       -17.5554
  26   2.0000      -0.635809       -17.3013
  27   2.0000      -0.630552       -17.1582
  28   2.0000      -0.630542       -17.1579
  29   2.0000      -0.613000       -16.6806
  30   2.0000      -0.612337       -16.6625
  31   2.0000      -0.612329       -16.6623
  32   2.0000      -0.611691       -16.6449
  33   2.0000      -0.610450       -16.6112
  34   2.0000      -0.610445       -16.6110
  35   2.0000      -0.609106       -16.5746
  36   2.0000      -0.609102       -16.5745
  37   2.0000      -0.597252       -16.2521
  38   2.0000      -0.596078       -16.2201
  39   2.0000      -0.594331       -16.1726
  40   2.0000      -0.594319       -16.1723
  41   2.0000      -0.545195       -14.8355
  42   0.0000      -0.440015       -11.9734
  43   0.0000      -0.440009       -11.9733
  44   0.0000      -0.425746       -11.5851
  45   0.0000      -0.327910        -8.9229
  46   0.0000      -0.316427        -8.6104

MULLIKEN ATOMIC CHARGES
-----------------------
   0 Ag:    0.437857
   1 Ag:    0.437894
   2 Ag:    0.437886
   3 Ag:    0.472418
   4 N :   -0.344270
   5 H :    0.185970
   6 H :    0.186276
   7 H :    0.185969
Sum of atomic charges:    2.0000000

LOEWDIN ATOMIC CHARGES
----------------------
   0 Ag:    0.475410
   1 Ag:    0.475400
   2 Ag:    0.475400
   3 Ag:    0.466678
   4 N :    0.420360
   5 H :   -0.104417
   6 H :   -0.104412
   7 H :   -0.104417

  Mayer bond orders larger than 0.100000
B(  0-Ag,  1-Ag) :   0.3979 B(  0-Ag,  2-Ag) :   0.3979 B(  0-Ag,  3-Ag) :   0.3834
B(  1-Ag,  2-Ag) :   0.3978 B(  1-Ag,  3-Ag) :   0.3834 B(  2-Ag,  3-Ag) :   0.3834
B(  4-N ,  5-H ) :   1.0072 B(  4-N ,  6-H ) :   1.0068 B(  4-N ,  7-H ) :   1.0072

Dispersion correction           -0.017438109
FINAL SINGLE POINT ENERGY      -643.834163762304

DIPOLE MOMENT
-------------
                                X             Y             Z
Electronic contribution:      0.00000       0.00006      41.66773
Nuclear contribution   :      0.00000       0.00000     -43.35494
                        -----------------------------------------
Total Dipole Moment    :      0.00000       0.00006      -1.68721
                        -----------------------------------------
Magnitude (a.u.)       :      1.68721
Magnitude (Debye)      :      4.28854

Rotational constants in cm-1:     0.020453     0.016499     0.016499
Rotational constants in MHz :   613.168216   494.640125   494.640113

                             ****ORCA TERMINATED NORMALLY****
TOTAL RUN TIME: 0 days 0 hours 0 minutes 7 seconds 596 msec
