                         Program Version 4.2.0 -  RELEASE  -
|  1> #
|  2> # Ag04C2_H_E TPSS-D3BJ/Def2-TZVPPD
|  3> #
|  4> ! tpss d3bj def2-tzvppd def2/j grid4 nofinalgrid
|  5>
|  6> *xyz 2 2
|  7> Ag      -0.000000    1.374598    1.108828
|  8> Ag      -0.000000   -1.374598    1.108828
|  9> Ag      -1.374988    0.000000   -1.132689
| 10> Ag       1.374988   -0.000000   -1.132689
| 11> H        0.000000    0.000000    2.242952
| 12> *
| 13>
| 14> %maxcore 5000
| 15>
| 16> %pal
| 17> nprocs = 24
| 18> end
| 19>
| 20>
| 21>                          ****END OF INPUT****

CARTESIAN COORDINATES (ANGSTROEM)
---------------------------------
  Ag    -0.000000    1.374598    1.108828
  Ag    -0.000000   -1.374598    1.108828
  Ag    -1.374988    0.000000   -1.132689
  Ag     1.374988   -0.000000   -1.132689
  H      0.000000    0.000000    2.242952

 Total Charge           Charge          ....    2
 Multiplicity           Mult            ....    2
 Number of Electrons    NEL             ....   75
 Basis Dimension        Dim             ....  241

ORBITAL ENERGIES
----------------
                 SPIN UP ORBITALS
  NO   OCC          E(Eh)            E(eV)
   0   1.0000      -3.988565      -108.5344
   1   1.0000      -3.988365      -108.5289
   2   1.0000      -3.965722      -107.9128
   3   1.0000      -3.965525      -107.9074
   4   1.0000      -2.616234       -71.1914
   5   1.0000      -2.614210       -71.1363
   6   1.0000      -2.610323       -71.0305
   7   1.0000      -2.609364       -71.0044
   8   1.0000      -2.606253       -70.9197
   9   1.0000      -2.606014       -70.9132
  10   1.0000      -2.590986       -70.5043
  11   1.0000      -2.588708       -70.4423
  12   1.0000      -2.587810       -70.4179
  13   1.0000      -2.587288       -70.4037
  14   1.0000      -2.587256       -70.4028
  15   1.0000      -2.587059       -70.3975
  16   1.0000      -0.761041       -20.7090
  17   1.0000      -0.704485       -19.1700
  18   1.0000      -0.683602       -18.6018
  19   1.0000      -0.683514       -18.5994
  20   1.0000      -0.677452       -18.4344
  21   1.0000      -0.670653       -18.2494
  22   1.0000      -0.669634       -18.2217
  23   1.0000      -0.669364       -18.2143
  24   1.0000      -0.663322       -18.0499
  25   1.0000      -0.652301       -17.7500
  26   1.0000      -0.651345       -17.7240
  27   1.0000      -0.649915       -17.6851
  28   1.0000      -0.648431       -17.6447
  29   1.0000      -0.645915       -17.5762
  30   1.0000      -0.639446       -17.4002
  31   1.0000      -0.635817       -17.3015
  32   1.0000      -0.634434       -17.2638
  33   1.0000      -0.632497       -17.2111
  34   1.0000      -0.630334       -17.1523
  35   1.0000      -0.625129       -17.0106
  36   1.0000      -0.623780       -16.9739
  37   1.0000      -0.543145       -14.7797
  38   0.0000      -0.468523       -12.7492
  39   0.0000      -0.460382       -12.5276
  40   0.0000      -0.411202       -11.1894
  41   0.0000      -0.350721        -9.5436
  42   0.0000      -0.348065        -9.4713

                 SPIN DOWN ORBITALS
  NO   OCC          E(Eh)            E(eV)
   0   1.0000      -3.985182      -108.4423
   1   1.0000      -3.984983      -108.4369
   2   1.0000      -3.965452      -107.9054
   3   1.0000      -3.965258      -107.9001
   4   1.0000      -2.610375       -71.0319
   5   1.0000      -2.608108       -70.9702
   6   1.0000      -2.607136       -70.9438
   7   1.0000      -2.606392       -70.9235
   8   1.0000      -2.605124       -70.8890
   9   1.0000      -2.604884       -70.8825
  10   1.0000      -2.589988       -70.4771
  11   1.0000      -2.588239       -70.4296
  12   1.0000      -2.587619       -70.4127
  13   1.0000      -2.587245       -70.4025
  14   1.0000      -2.587023       -70.3965
  15   1.0000      -2.586572       -70.3842
  16   1.0000      -0.738986       -20.1088
  17   1.0000      -0.701553       -19.0902
  18   1.0000      -0.681711       -18.5503
  19   1.0000      -0.680316       -18.5123
  20   1.0000      -0.673684       -18.3319
  21   1.0000      -0.667258       -18.1570
  22   1.0000      -0.667221       -18.1560
  23   1.0000      -0.666783       -18.1441
  24   1.0000      -0.656992       -17.8777
  25   1.0000      -0.650020       -17.6879
  26   1.0000      -0.649825       -17.6826
  27   1.0000      -0.646920       -17.6036
  28   1.0000      -0.645590       -17.5674
  29   1.0000      -0.642744       -17.4900
  30   1.0000      -0.636890       -17.3307
  31   1.0000      -0.632370       -17.2077
  32   1.0000      -0.632185       -17.2026
  33   1.0000      -0.630915       -17.1681
  34   1.0000      -0.628558       -17.1039
  35   1.0000      -0.621429       -16.9099
  36   1.0000      -0.617336       -16.7986
  37   0.0000      -0.521947       -14.2029
  38   0.0000      -0.463491       -12.6122
  39   0.0000      -0.455950       -12.4070
  40   0.0000      -0.396923       -10.8008
  41   0.0000      -0.346529        -9.4295

MULLIKEN ATOMIC CHARGES AND SPIN POPULATIONS
--------------------------------------------
   0 Ag:    0.402127    0.134729
   1 Ag:    0.402121    0.134726
   2 Ag:    0.503042    0.217064
   3 Ag:    0.503041    0.217065
   4 H :    0.189668    0.296416
Sum of atomic charges         :    2.0000000

LOEWDIN ATOMIC CHARGES AND SPIN POPULATIONS
-------------------------------------------
   0 Ag:    0.561276    0.223661
   1 Ag:    0.561276    0.223661
   2 Ag:    0.505578    0.172891
   3 Ag:    0.505578    0.172891
   4 H :   -0.133707    0.206896

  Mayer bond orders larger than 0.100000
B(  0-Ag,  1-Ag) :   0.5373 B(  0-Ag,  2-Ag) :   0.3058 B(  0-Ag,  3-Ag) :   0.3058
B(  0-Ag,  4-H ) :   0.3917 B(  1-Ag,  2-Ag) :   0.3058 B(  1-Ag,  3-Ag) :   0.3058
B(  1-Ag,  4-H ) :   0.3917 B(  2-Ag,  3-Ag) :   0.4537

Dispersion correction           -0.012859225
FINAL SINGLE POINT ENERGY      -587.745239578788

DIPOLE MOMENT
-------------
                                X             Y             Z
Electronic contribution:     -0.00000       0.00000      -3.58753
Nuclear contribution   :      0.00000       0.00000       3.49639
                        -----------------------------------------
Total Dipole Moment    :     -0.00000       0.00000      -0.09114
                        -----------------------------------------
Magnitude (a.u.)       :      0.09114
Magnitude (Debye)      :      0.23166

Rotational constants in cm-1:     0.020671     0.017657     0.017653
Rotational constants in MHz :   619.701148   529.337252   529.209018

                             ****ORCA TERMINATED NORMALLY****
TOTAL RUN TIME: 0 days 0 hours 0 minutes 7 seconds 445 msec
