                         Program Version 4.2.0 -  RELEASE  -
|  1> #
|  2> # Ag04C2_H_F TPSS-D3BJ/Def2-TZVPPD
|  3> #
|  4> ! tpss d3bj def2-tzvppd def2/j grid4 nofinalgrid
|  5>
|  6> *xyz 2 2
|  7> Ag       0.000000    1.604405   -0.611776
|  8> Ag       1.389456   -0.802203   -0.611776
|  9> Ag      -1.389456   -0.802203   -0.611776
| 10> Ag       0.000000    0.000000    1.871824
| 11> H        0.000000    0.000000   -1.715373
| 12> *
| 13>
| 14> %maxcore 5000
| 15>
| 16> %pal
| 17> nprocs = 24
| 18> end
| 19>
| 20>
| 21>                          ****END OF INPUT****

CARTESIAN COORDINATES (ANGSTROEM)
---------------------------------
  Ag     0.000000    1.604405   -0.611776
  Ag     1.389456   -0.802203   -0.611776
  Ag    -1.389456   -0.802203   -0.611776
  Ag     0.000000    0.000000    1.871824
  H      0.000000    0.000000   -1.715373

 Total Charge           Charge          ....    2
 Multiplicity           Mult            ....    2
 Number of Electrons    NEL             ....   75
 Basis Dimension        Dim             ....  241

ORBITAL ENERGIES
----------------
                 SPIN UP ORBITALS
  NO   OCC          E(Eh)            E(eV)
   0   1.0000      -3.985942      -108.4630
   1   1.0000      -3.985687      -108.4561
   2   1.0000      -3.985687      -108.4561
   3   1.0000      -3.952253      -107.5463
   4   1.0000      -2.612577       -71.0918
   5   1.0000      -2.610117       -71.0249
   6   1.0000      -2.610117       -71.0249
   7   1.0000      -2.607072       -70.9420
   8   1.0000      -2.607054       -70.9415
   9   1.0000      -2.607053       -70.9415
  10   1.0000      -2.606513       -70.9268
  11   1.0000      -2.606510       -70.9267
  12   1.0000      -2.606043       -70.9140
  13   1.0000      -2.576219       -70.1025
  14   1.0000      -2.573934       -70.0403
  15   1.0000      -2.573932       -70.0403
  16   1.0000      -0.776286       -21.1238
  17   1.0000      -0.706942       -19.2369
  18   1.0000      -0.689618       -18.7655
  19   1.0000      -0.689613       -18.7653
  20   1.0000      -0.675027       -18.3684
  21   1.0000      -0.675022       -18.3683
  22   1.0000      -0.674492       -18.3539
  23   1.0000      -0.661909       -18.0115
  24   1.0000      -0.661902       -18.0113
  25   1.0000      -0.654783       -17.8175
  26   1.0000      -0.654772       -17.8172
  27   1.0000      -0.651464       -17.7272
  28   1.0000      -0.650081       -17.6896
  29   1.0000      -0.650079       -17.6895
  30   1.0000      -0.649301       -17.6684
  31   1.0000      -0.636150       -17.3105
  32   1.0000      -0.629502       -17.1296
  33   1.0000      -0.629487       -17.1292
  34   1.0000      -0.624712       -16.9993
  35   1.0000      -0.624702       -16.9990
  36   1.0000      -0.622411       -16.9367
  37   1.0000      -0.523744       -14.2518
  38   0.0000      -0.471236       -12.8230
  39   0.0000      -0.471233       -12.8229
  40   0.0000      -0.409632       -11.1467
  41   0.0000      -0.351813        -9.5733
  42   0.0000      -0.338961        -9.2236

                 SPIN DOWN ORBITALS
  NO   OCC          E(Eh)            E(eV)
   0   1.0000      -3.984016      -108.4106
   1   1.0000      -3.983760      -108.4036
   2   1.0000      -3.983760      -108.4036
   3   1.0000      -3.952532      -107.5539
   4   1.0000      -2.609921       -71.0196
   5   1.0000      -2.607746       -70.9604
   6   1.0000      -2.607745       -70.9604
   7   1.0000      -2.606093       -70.9154
   8   1.0000      -2.606090       -70.9153
   9   1.0000      -2.605526       -70.9000
  10   1.0000      -2.604453       -70.8708
  11   1.0000      -2.604038       -70.8595
  12   1.0000      -2.604035       -70.8594
  13   1.0000      -2.576215       -70.1024
  14   1.0000      -2.573972       -70.0413
  15   1.0000      -2.573970       -70.0413
  16   1.0000      -0.759029       -20.6542
  17   1.0000      -0.702943       -19.1281
  18   1.0000      -0.688798       -18.7432
  19   1.0000      -0.688793       -18.7430
  20   1.0000      -0.672157       -18.2903
  21   1.0000      -0.671606       -18.2753
  22   1.0000      -0.671601       -18.2752
  23   1.0000      -0.659283       -17.9400
  24   1.0000      -0.659276       -17.9398
  25   1.0000      -0.650960       -17.7135
  26   1.0000      -0.650957       -17.7134
  27   1.0000      -0.649966       -17.6865
  28   1.0000      -0.648636       -17.6503
  29   1.0000      -0.648627       -17.6500
  30   1.0000      -0.643338       -17.5061
  31   1.0000      -0.635124       -17.2826
  32   1.0000      -0.625605       -17.0236
  33   1.0000      -0.625590       -17.0232
  34   1.0000      -0.621615       -16.9150
  35   1.0000      -0.621605       -16.9147
  36   1.0000      -0.616572       -16.7778
  37   0.0000      -0.501958       -13.6590
  38   0.0000      -0.466623       -12.6975
  39   0.0000      -0.466620       -12.6974
  40   0.0000      -0.397026       -10.8036
  41   0.0000      -0.346429        -9.4268

MULLIKEN ATOMIC CHARGES AND SPIN POPULATIONS
--------------------------------------------
   0 Ag:    0.434988    0.100285
   1 Ag:    0.434673    0.100310
   2 Ag:    0.434671    0.100310
   3 Ag:    0.410948    0.411082
   4 H :    0.284720    0.288013
Sum of atomic charges         :    2.0000000

LOEWDIN ATOMIC CHARGES AND SPIN POPULATIONS
-------------------------------------------
   0 Ag:    0.555764    0.177475
   1 Ag:    0.555742    0.177475
   2 Ag:    0.555742    0.177475
   3 Ag:    0.490569    0.281860
   4 H :   -0.157817    0.185715

  Mayer bond orders larger than 0.100000
B(  0-Ag,  1-Ag) :   0.4352 B(  0-Ag,  2-Ag) :   0.4352 B(  0-Ag,  3-Ag) :   0.3377
B(  0-Ag,  4-H ) :   0.1870 B(  1-Ag,  2-Ag) :   0.4353 B(  1-Ag,  3-Ag) :   0.3377
B(  1-Ag,  4-H ) :   0.1871 B(  2-Ag,  3-Ag) :   0.3377 B(  2-Ag,  4-H ) :   0.1871

Dispersion correction           -0.013118677
FINAL SINGLE POINT ENERGY      -587.741486253522

DIPOLE MOMENT
-------------
                                X             Y             Z
Electronic contribution:      0.00000      -0.00003       2.49820
Nuclear contribution   :      0.00000       0.00000      -2.67399
                        -----------------------------------------
Total Dipole Moment    :      0.00000      -0.00003      -0.17578
                        -----------------------------------------
Magnitude (a.u.)       :      0.17578
Magnitude (Debye)      :      0.44681

Rotational constants in cm-1:     0.020237     0.018353     0.018353
Rotational constants in MHz :   606.690796   550.208253   550.208173

                             ****ORCA TERMINATED NORMALLY****
TOTAL RUN TIME: 0 days 0 hours 0 minutes 7 seconds 196 msec
