                         Program Version 4.2.0 -  RELEASE  -
|  1> # input to generate an atomic fitting density for Ag
|  2> # this file is use internally by ORCA
|  3> #
|  4> # atomic ground state (S=2): 1s2 2s2 2p6 3s2 3p6 4s2 3d10 4p6 5s2 4d9
|  5> #
|  6> ! RHF AllowRHF def2-SVP def2/J  NoMulliken NoLoewdin NoMayer NoPrintMOs
|  7>
|  8> %output print[p_atomdensfit] 2 end
|  9>
| 10> %scf
| 11>   guess hcore
| 12>   maxiter 1000
| 13>   maxdisk 500000
| 14>   SCFMode Conventional
| 15>   lshift 1.000000
| 16>   hftyp rohf
| 17>   rohf_case sahf
| 18>   rohf_numop   2
| 19>   rohf_norb[1] 5
| 20>   rohf_nel[1]  9
| 21> end
| 22>
| 23> %basis
| 24>   NewECP 47
| 25>     N_core 28
| 26>     lmax f
| 27>     s 4
| 28>       1      13.1300000000    255.1393645000  2
| 29>       2       6.5100000000     36.8661215000  2
| 30>       3      14.2200000000     33.6899201000  2
| 31>       4       7.1100000000      5.5311202000  2
| 32>     p 4
| 33>       1      11.7400000000    182.1818687000  2
| 34>       2       6.2000000000     30.3577515000  2
| 35>       3      14.2200000000     33.6899201000  2
| 36>       4       7.1100000000      5.5311202000  2
| 37>     d 4
| 38>       1      10.2100000000     73.7192609000  2
| 39>       2       4.3800000000     12.5021171000  2
| 40>       3      14.2200000000     33.6899201000  2
| 41>       4       7.1100000000      5.5311202000  2
| 42>     f 2
| 43>       1      14.2200000000    -33.6899201000  2
| 44>       2       7.1100000000     -5.5311202000  2
| 45>   end
| 46>   NewGTO 47
| 47>     s 2
| 48>      1      19.0000000000     -0.8594685537
| 49>      2      15.4281999330      1.8465563920
| 50>     s 1
| 51>      1       6.0553507268      1.0000000000
| 52>     s 1
| 53>      1       1.4162368935      1.0000000000
| 54>     s 1
| 55>      1       0.6175863586      1.0000000000
| 56>     s 1
| 57>      1       0.1047419743      1.0000000000
| 58>     s 1
| 59>      1       0.0376851063      1.0000000000
| 60>     p 4
| 61>      1      13.1881801800      0.0769824523
| 62>      2       7.7952789138     -0.2845084432
| 63>      3       2.0351571912      0.5653800140
| 64>      4       0.9809391484      0.5721355592
| 65>     p 1
| 66>      1       0.4445117996      1.0000000000
| 67>     p 1
| 68>      1       0.1300000000      1.0000000000
| 69>     p 1
| 70>      1       0.0412000000      1.0000000000
| 71>     d 4
| 72>      1      25.7843973510      0.0057358549
| 73>      2      11.3966367550     -0.0208937342
| 74>      3       2.7345581361      0.3879491828
| 75>      4       1.1873583605      0.6824815392
| 76>     d 1
| 77>      1       0.4731691057      1.0000000000
| 78>     d 1
| 79>      1       0.1674601799      1.0000000000
| 80>   end
| 81>   NewAuxGTO 47
| 82>     S 1
| 83>      1 1310.72 1.0
| 84>     S 1
| 85>      1  655.36 1.0
| 86>     S 1
| 87>      1  327.68 1.0
| 88>     S 1
| 89>      1  163.84 1.0
| 90>     S 1
| 91>      1   81.82 1.0
| 92>     S 1
| 93>      1   40.96 1.0
| 94>     S 1
| 95>      1   20.48 1.0
| 96>     S 1
| 97>      1   10.24 1.0
| 98>     S 1
| 99>      1    5.12 1.0
|100>     S 1
|101>      1    2.56 1.0
|102>     S 1
|103>      1    1.28 1.0
|104>     S 1
|105>      1    0.64 1.0
|106>     S 1
|107>      1    0.32 1.0
|108>     S 1
|109>      1    0.16 1.0
|110>     S 1
|111>      1    0.08 1.0
|112>     S 1
|113>      1    0.04 1.0
|114>     S 1
|115>      1    0.02 1.0
|116>     S 1
|117>      1    0.01 1.0
|118>   end
|119> end
|120>
|121> * xyz 0 2
|122> 47  0.0 0.0 0.0
|123> *
|124>
|125>
|126>                          ****END OF INPUT****

CARTESIAN COORDINATES (ANGSTROEM)
---------------------------------
  Ag     0.000000    0.000000    0.000000

 Total Charge           Charge          ....    0
 Multiplicity           Mult            ....    2
 Number of Electrons    NEL             ....   19
 Basis Dimension        Dim             ....   33

ORBITAL ENERGIES
----------------

  NO   OCC          E(Eh)            E(eV)
   0   2.0000      -4.471510      -121.6760
   1   2.0000      -2.913002       -79.2668
   2   2.0000      -2.912009       -79.2398
   3   2.0000      -2.910240       -79.1917
   4   2.0000      -0.627440       -17.0735
   5   1.8000      -0.632615       -17.2143
   6   1.8000      -0.632279       -17.2052
   7   1.8000      -0.626619       -17.0512
   8   1.8000      -0.623447       -16.9648
   9   1.8000      -0.273266        -7.4359
  10   0.0000       0.027287         0.7425
  11   0.0000       0.027739         0.7548
  12   0.0000       0.028541         0.7766
  13   0.0000       0.137715         3.7474
  14   0.0000       0.258321         7.0293

CleanUpVectors: The p-vectors have cracked symmetry
CleanUpVectors: The p-vectors have cracked symmetry
CleanUpVectors: The p-vectors have cracked symmetry
CleanUpVectors: The d-vectors have cracked symmetry at i=4
CleanUpVectors: The d-vectors have cracked symmetry at i=5
CleanUpVectors: The d-vectors have cracked symmetry at i=6
CleanUpVectors: The d-vectors have cracked symmetry at i=7
CleanUpVectors: The d-vectors have cracked symmetry at i=8
CleanUpVectors: The p-vectors have cracked symmetry
CleanUpVectors: The p-vectors have cracked symmetry
CleanUpVectors: The p-vectors have cracked symmetry
CleanUpVectors: The p-vectors have cracked symmetry
CleanUpVectors: The p-vectors have cracked symmetry
CleanUpVectors: The p-vectors have cracked symmetry
CleanUpVectors: The d-vectors have cracked symmetry at i=17
CleanUpVectors: The d-vectors have cracked symmetry at i=18
CleanUpVectors: The d-vectors have cracked symmetry at i=19
CleanUpVectors: The d-vectors have cracked symmetry at i=20
CleanUpVectors: The d-vectors have cracked symmetry at i=21
CleanUpVectors: The p-vectors have cracked symmetry
CleanUpVectors: The p-vectors have cracked symmetry
CleanUpVectors: The p-vectors have cracked symmetry
CleanUpVectors: The d-vectors have cracked symmetry at i=26
CleanUpVectors: The d-vectors have cracked symmetry at i=27
CleanUpVectors: The d-vectors have cracked symmetry at i=28
--------------------------
ATOM BASIS FOR ELEMENT Ag
--------------------------
 NewGTO Ag
 S 7
    1         19.000000000000        -0.166336773096
    2         15.428199933000         0.357372274138
    3          6.055350726800        -0.700360115129
    4          1.416236893500         0.907235024498
    5          0.617586358600         0.404397872906
    6          0.104741974300         0.012078504069
    7          0.037685106300         0.001759699742
 P 20
    1         13.188180180000        -0.001289303445
    2          7.795278913800         0.004764952336
    3          2.035157191200        -0.009468994271
    4          0.980939148400        -0.009582136259
    5         13.188180180000         0.025649757273
    6          7.795278913800        -0.094795272066
    7          2.035157191200         0.188378775847
    8          0.980939148400         0.190629653669
    9         13.188180180000        -0.062624092779
   10          7.795278913800         0.231443434330
   11          2.035157191200        -0.459928326449
   12          0.980939148400        -0.465423863117
   13          0.444511799600        -0.002944651978
   14          0.444511799600         0.058581716178
   15          0.444511799600        -0.143027740577
   16          0.130000000000        -0.000124665688
   17          0.130000000000         0.002480133471
   18          0.130000000000        -0.006055266213
   19          0.041200000000         0.000006933830
   20          0.041200000000        -0.000137943511
 D 20
    1         19.000000000000         0.000003894206
    2         15.428199933000        -0.000010303619
    3          6.055350726800         0.000054893478
    4          1.416236893500        -0.000467560068
    5          0.617586358600         0.000176911188
    6          0.104741974300         0.003275577346
    7          0.037685106300        -0.002333959135
    8         25.784397351000         0.002298348822
    9         11.396636755000        -0.008372089293
   10          2.734558136100         0.155450680500
   11          1.187358360500         0.273469372797
   12         25.784397351000        -0.001189955402
   13         11.396636755000         0.004334595681
   14          2.734558136100        -0.080483595515
   15          1.187358360500        -0.141587018564
   16         25.784397351000        -0.000511149550
   17         11.396636755000         0.001861940899
   18          2.734558136100        -0.034572012986
   19          1.187358360500        -0.060819204375
   20         25.784397351000        -0.002032063173
 D 20
    1         25.784397351000         0.000125516500
    2         11.396636755000        -0.000457213166
    3          2.734558136100         0.008489409910
    4          1.187358360500         0.014934599167
    5         25.784397351000        -0.001453482956
    6         11.396636755000         0.005294535352
    7          2.734558136100        -0.098307494647
    8          1.187358360500        -0.172942883337
    9         25.784397351000         0.003513541957
   10         11.396636755000        -0.012798617298
   11          2.734558136100         0.237641250448
   12          1.187358360500         0.418059306667
   13         25.784397351000         0.000542164161
   14         11.396636755000        -0.001974916395
   15          2.734558136100         0.036669711323
   16          1.187358360500         0.064509482518
   17         25.784397351000        -0.000447513552
   18         11.396636755000         0.001630136985
   19          2.734558136100        -0.030267940868
   20          1.187358360500        -0.053247465873
 P 20
    1         13.188180180000        -0.001915501727
    2          7.795278913800         0.007079229071
    3          2.035157191200        -0.014067964332
    4          0.980939148400        -0.014236057944
    5         13.188180180000        -0.009659459314
    6          7.795278913800         0.035699015159
    7          2.035157191200        -0.070941689685
    8          0.980939148400        -0.071789349276
    9         13.188180180000        -0.003916913011
   10          7.795278913800         0.014475958997
   11          2.035157191200        -0.028766871760
   12          0.980939148400        -0.029110597922
   13          0.444511799600         0.002542340234
   14          0.444511799600         0.012820469808
   15          0.444511799600         0.005198703506
   16          0.130000000000         0.011990859689
   17          0.130000000000         0.060467301951
   18          0.130000000000         0.024519505084
   19          0.041200000000         0.172546444994
   20          0.041200000000         0.870114258756
 P 20
    1         13.188180180000        -0.003282981409
    2          7.795278913800         0.012133101789
    3          2.035157191200        -0.024111106096
    4          0.980939148400        -0.024399202002
    5         13.188180180000        -0.016555362443
    6          7.795278913800         0.061184597975
    7          2.035157191200        -0.121587073026
    8          0.980939148400        -0.123039878126
    9         13.188180180000        -0.006713203343
   10          7.795278913800         0.024810368790
   11          2.035157191200        -0.049303586551
   12          0.980939148400        -0.049892699358
   13          0.444511799600        -0.042630063449
   14          0.444511799600        -0.214974154112
   15          0.444511799600        -0.087172069774
   16          0.130000000000         0.282437383170
   17          0.130000000000         1.424270400365
   18          0.130000000000         0.577541980478
   19          0.041200000000        -0.188495951254
   20          0.041200000000        -0.950544155829
 D 20
    1         19.000000000000         0.000003697885
    2         15.428199933000        -0.000009784179
    3          6.055350726800         0.000052732541
    4          1.416236893500        -0.000476900769
    5          0.617586358600         0.000037619079
    6          0.104741974300         0.009590333554
    7          0.037685106300        -0.009330127563
    8         25.784397351000         0.000812102593
    9         11.396636755000        -0.002958208675
   10          2.734558136100         0.054927215365
   11          1.187358360500         0.096628146541
   12         25.784397351000        -0.000420912278
   13         11.396636755000         0.001533237748
   14          2.734558136100        -0.028468742143
   15          1.187358360500        -0.050082309277
   16         25.784397351000        -0.000180744592
   17         11.396636755000         0.000658389991
   18          2.734558136100        -0.012224806570
   19          1.187358360500        -0.021505921842
   20         25.784397351000        -0.000719775211
 P 20
    1         13.188180180000        -0.018459155084
    2          7.795278913800         0.068220553109
    3          2.035157191200        -0.135569042655
    4          0.980939148400        -0.137188913844
    5         13.188180180000        -0.093085511231
    6          7.795278913800         0.344021437272
    7          2.035157191200        -0.683645247337
    8          0.980939148400        -0.691813906035
    9         13.188180180000        -0.037746196575
   10          7.795278913800         0.139500773271
   11          2.035157191200        -0.277218307682
   12          0.980939148400        -0.280530700695
   13          0.444511799600         0.383795458185
   14          0.444511799600         1.935397165895
   15          0.444511799600         0.784804003410
   16          0.130000000000        -0.227191618727
   17          0.130000000000        -1.145678005359
   18          0.130000000000        -0.464572699117
   19          0.041200000000         0.079201332533
   20          0.041200000000         0.399395123756
 D 20
    1         19.000000000000         0.000046415733
    2         15.428199933000        -0.000122810682
    3          6.055350726800         0.000649019400
    4          1.416236893500        -0.009033390426
    5          0.617586358600         0.020049829000
    6          0.104741974300        -0.044774220638
    7          0.037685106300         0.054375262929
    8         25.784397351000         0.003681916338
    9         11.396636755000        -0.013411946895
   10          2.734558136100         0.249029387856
   11          1.187358360500         0.438093357236
   12         25.784397351000        -0.001923358047
   13         11.396636755000         0.007006127682
   14          2.734558136100        -0.130087876246
   15          1.187358360500        -0.228851040156
   16         25.784397351000        -0.000823925038
   17         11.396636755000         0.003001273751
   18          2.734558136100        -0.055726836002
   19          1.187358360500        -0.098034841922
   20         25.784397351000        -0.003321984080
 end
  // -----------------------------------------------
  // The basis set
  // -----------------------------------------------
  BAS[ATNO] = new BFNGauss[NSH];
  // Basis function   1 L = s
  InitBFNGauss(BAS[ATNO][  0]);
  BAS[ATNO][  0].l  = 0;
  BAS[ATNO][  0].ng = 7;
  BAS[ATNO][  0].a[  0] =        19.000000000000;     BAS[ATNO][  0].d[  0] =        -0.166336773096;
  BAS[ATNO][  0].a[  1] =        15.428199933000;     BAS[ATNO][  0].d[  1] =         0.357372274138;
  BAS[ATNO][  0].a[  2] =         6.055350726800;     BAS[ATNO][  0].d[  2] =        -0.700360115129;
  BAS[ATNO][  0].a[  3] =         1.416236893500;     BAS[ATNO][  0].d[  3] =         0.907235024498;
  BAS[ATNO][  0].a[  4] =         0.617586358600;     BAS[ATNO][  0].d[  4] =         0.404397872906;
  BAS[ATNO][  0].a[  5] =         0.104741974300;     BAS[ATNO][  0].d[  5] =         0.012078504069;
  BAS[ATNO][  0].a[  6] =         0.037685106300;     BAS[ATNO][  0].d[  6] =         0.001759699742;

FINAL SINGLE POINT ENERGY      -145.992254861497

DIPOLE MOMENT
-------------
                                X             Y             Z
Electronic contribution:     -0.00000       0.00000      -0.00000
Nuclear contribution   :      0.00000       0.00000       0.00000
                        -----------------------------------------
Total Dipole Moment    :     -0.00000       0.00000      -0.00000
                        -----------------------------------------
Magnitude (a.u.)       :      0.00000
Magnitude (Debye)      :      0.00000

Rotational constants in cm-1:     0.000000     0.000000     0.000000
Rotational constants in MHz :     0.000000     0.000000     0.000000

                             ****ORCA TERMINATED NORMALLY****
TOTAL RUN TIME: 0 days 0 hours 0 minutes 1 seconds 191 msec
