                         Program Version 4.2.0 -  RELEASE  -
|  1> #
|  2> # Ag04C2 TPSS-D3BJ/Def2-TZVPPD
|  3> #
|  4> ! tpss d3bj def2-tzvppd def2/j grid4 nofinalgrid
|  5>
|  6> *xyz 2 1
|  7> Ag      -0.000000   -0.000016    1.715553
|  8> Ag       0.000000   -1.617524   -0.571836
|  9> Ag       1.400774    0.808769   -0.571859
| 10> Ag      -1.400774    0.808770   -0.571858
| 11> *
| 12>
| 13> %maxcore 5000
| 14>
| 15> %pal
| 16> nprocs = 24
| 17> end
| 18>
| 19>
| 20>                          ****END OF INPUT****

CARTESIAN COORDINATES (ANGSTROEM)
---------------------------------
  Ag    -0.000000   -0.000016    1.715553
  Ag     0.000000   -1.617524   -0.571836
  Ag     1.400774    0.808769   -0.571859
  Ag    -1.400774    0.808770   -0.571858

 Total Charge           Charge          ....    2
 Multiplicity           Mult            ....    1
 Number of Electrons    NEL             ....   74
 Basis Dimension        Dim             ....  224

ORBITAL ENERGIES
----------------

  NO   OCC          E(Eh)            E(eV)
   0   2.0000      -3.970860      -108.0526
   1   2.0000      -3.970564      -108.0445
   2   2.0000      -3.970561      -108.0445
   3   2.0000      -3.970559      -108.0444
   4   2.0000      -2.596822       -70.6631
   5   2.0000      -2.594356       -70.5960
   6   2.0000      -2.594356       -70.5960
   7   2.0000      -2.594355       -70.5960
   8   2.0000      -2.592825       -70.5544
   9   2.0000      -2.592824       -70.5543
  10   2.0000      -2.592197       -70.5373
  11   2.0000      -2.592196       -70.5373
  12   2.0000      -2.592194       -70.5372
  13   2.0000      -2.591687       -70.5234
  14   2.0000      -2.591686       -70.5234
  15   2.0000      -2.591685       -70.5233
  16   2.0000      -0.706537       -19.2259
  17   2.0000      -0.680096       -18.5064
  18   2.0000      -0.680085       -18.5061
  19   2.0000      -0.680076       -18.5058
  20   2.0000      -0.671481       -18.2719
  21   2.0000      -0.671473       -18.2717
  22   2.0000      -0.658153       -17.9093
  23   2.0000      -0.658148       -17.9091
  24   2.0000      -0.658135       -17.9088
  25   2.0000      -0.639145       -17.3920
  26   2.0000      -0.639131       -17.3916
  27   2.0000      -0.639128       -17.3915
  28   2.0000      -0.637894       -17.3580
  29   2.0000      -0.637880       -17.3576
  30   2.0000      -0.637135       -17.3373
  31   2.0000      -0.637121       -17.3369
  32   2.0000      -0.637103       -17.3365
  33   2.0000      -0.622805       -16.9474
  34   2.0000      -0.622803       -16.9473
  35   2.0000      -0.622793       -16.9471
  36   2.0000      -0.607551       -16.5323
  37   0.0000      -0.462070       -12.5736
  38   0.0000      -0.462065       -12.5734
  39   0.0000      -0.462063       -12.5734
  40   0.0000      -0.344484        -9.3739
  41   0.0000      -0.334232        -9.0949

MULLIKEN ATOMIC CHARGES
-----------------------
   0 Ag:    0.499989
   1 Ag:    0.500041
   2 Ag:    0.499988
   3 Ag:    0.499983
Sum of atomic charges:    2.0000000

LOEWDIN ATOMIC CHARGES
----------------------
   0 Ag:    0.499987
   1 Ag:    0.500027
   2 Ag:    0.499993
   3 Ag:    0.499993

  Mayer bond orders larger than 0.100000
B(  0-Ag,  1-Ag) :   0.3876 B(  0-Ag,  2-Ag) :   0.3877 B(  0-Ag,  3-Ag) :   0.3877
B(  1-Ag,  2-Ag) :   0.3876 B(  1-Ag,  3-Ag) :   0.3876 B(  2-Ag,  3-Ag) :   0.3876

Dispersion correction           -0.011378346
FINAL SINGLE POINT ENERGY      -587.198805030410

DIPOLE MOMENT
-------------
                                X             Y             Z
Electronic contribution:      0.00000      -0.00007      -0.00003
Nuclear contribution   :      0.00000      -0.00000       0.00000
                        -----------------------------------------
Total Dipole Moment    :      0.00000      -0.00007      -0.00003
                        -----------------------------------------
Magnitude (a.u.)       :      0.00007
Magnitude (Debye)      :      0.00019

Rotational constants in cm-1:     0.019912     0.019911     0.019911
Rotational constants in MHz :   596.940436   596.919431   596.905399

                             ****ORCA TERMINATED NORMALLY****
TOTAL RUN TIME: 0 days 0 hours 0 minutes 5 seconds 678 msec
