                         Program Version 4.2.0 -  RELEASE  -
|  1> #
|  2> # Ag04N0 TPSS-D3BJ/Def2-TZVPPD
|  3> #
|  4> ! tpss d3bj def2-tzvppd def2/j grid4 nofinalgrid
|  5>
|  6> *xyz 0 1
|  7> Ag      -1.015022   -0.433109    0.700282
|  8> Ag       0.974659   -2.209777    0.043294
|  9> Ag       1.013798    0.433158   -0.699441
| 10> Ag      -0.973435    2.209727   -0.044135
| 11> *
| 12>
| 13> %maxcore 5000
| 14>
| 15> %pal
| 16> nprocs = 24
| 17> end
| 18>
| 19>
| 20>                          ****END OF INPUT****

CARTESIAN COORDINATES (ANGSTROEM)
---------------------------------
  Ag    -1.015022   -0.433109    0.700282
  Ag     0.974659   -2.209777    0.043294
  Ag     1.013798    0.433158   -0.699441
  Ag    -0.973435    2.209727   -0.044135

 Total Charge           Charge          ....    0
 Multiplicity           Mult            ....    1
 Number of Electrons    NEL             ....   76
 Basis Dimension        Dim             ....  224

ORBITAL ENERGIES
----------------

  NO   OCC          E(Eh)            E(eV)
   0   2.0000      -3.603789       -98.0641
   1   2.0000      -3.603393       -98.0533
   2   2.0000      -3.580315       -97.4253
   3   2.0000      -3.580263       -97.4239
   4   2.0000      -2.230363       -60.6913
   5   2.0000      -2.225751       -60.5658
   6   2.0000      -2.225265       -60.5525
   7   2.0000      -2.224715       -60.5376
   8   2.0000      -2.224178       -60.5229
   9   2.0000      -2.223754       -60.5114
  10   2.0000      -2.204078       -59.9760
  11   2.0000      -2.203934       -59.9721
  12   2.0000      -2.202139       -59.9233
  13   2.0000      -2.202062       -59.9211
  14   2.0000      -2.199365       -59.8478
  15   2.0000      -2.199317       -59.8464
  16   2.0000      -0.325690        -8.8625
  17   2.0000      -0.324171        -8.8211
  18   2.0000      -0.305421        -8.3109
  19   2.0000      -0.303812        -8.2672
  20   2.0000      -0.301608        -8.2072
  21   2.0000      -0.294644        -8.0177
  22   2.0000      -0.283399        -7.7117
  23   2.0000      -0.282264        -7.6808
  24   2.0000      -0.268017        -7.2931
  25   2.0000      -0.267306        -7.2738
  26   2.0000      -0.264314        -7.1924
  27   2.0000      -0.257818        -7.0156
  28   2.0000      -0.257241        -6.9999
  29   2.0000      -0.256923        -6.9912
  30   2.0000      -0.253350        -6.8940
  31   2.0000      -0.252246        -6.8640
  32   2.0000      -0.250624        -6.8198
  33   2.0000      -0.249052        -6.7770
  34   2.0000      -0.246917        -6.7190
  35   2.0000      -0.238377        -6.4866
  36   2.0000      -0.231410        -6.2970
  37   2.0000      -0.159852        -4.3498
  38   0.0000      -0.124882        -3.3982
  39   0.0000      -0.082421        -2.2428
  40   0.0000      -0.058124        -1.5816
  41   0.0000      -0.032482        -0.8839
  42   0.0000      -0.028141        -0.7658

MULLIKEN ATOMIC CHARGES
-----------------------
   0 Ag:    0.066993
   1 Ag:   -0.066873
   2 Ag:    0.066613
   3 Ag:   -0.066733
Sum of atomic charges:   -0.0000000

LOEWDIN ATOMIC CHARGES
----------------------
   0 Ag:   -0.071962
   1 Ag:    0.072310
   2 Ag:   -0.072755
   3 Ag:    0.072407

  Mayer bond orders larger than 0.100000
B(  0-Ag,  1-Ag) :   0.5402 B(  0-Ag,  2-Ag) :   0.5044 B(  0-Ag,  3-Ag) :   0.5407
B(  1-Ag,  2-Ag) :   0.5409 B(  1-Ag,  3-Ag) :   0.2297 B(  2-Ag,  3-Ag) :   0.5409

Dispersion correction           -0.010350679
FINAL SINGLE POINT ENERGY      -587.831961723301

DIPOLE MOMENT
-------------
                                X             Y             Z
Electronic contribution:     -0.00136       0.00014       0.00076
Nuclear contribution   :      0.00000       0.00000       0.00000
                        -----------------------------------------
Total Dipole Moment    :     -0.00136       0.00014       0.00076
                        -----------------------------------------
Magnitude (a.u.)       :      0.00156
Magnitude (Debye)      :      0.00397

Rotational constants in cm-1:     0.045790     0.013394     0.010363
Rotational constants in MHz :  1372.764620   401.554164   310.676613

                             ****ORCA TERMINATED NORMALLY****
TOTAL RUN TIME: 0 days 0 hours 0 minutes 5 seconds 480 msec
