                         Program Version 4.2.0 -  RELEASE  -
|  1> #
|  2> # Ag04C2_NH3_A TPSS-D3BJ/Def2-TZVPPD
|  3> #
|  4> ! tpss d3bj def2-tzvppd def2/j grid4 nofinalgrid
|  5>
|  6> *xyz 2 1
|  7> Ag      -0.268639    1.507918    0.000000
|  8> Ag       1.705052   -0.492854   -0.000000
|  9> Ag      -0.647170   -0.911099    1.379441
| 10> Ag      -0.647170   -0.911099   -1.379441
| 11> N       -0.647170    3.675657    0.000000
| 12> H       -0.250844    4.149729    0.817426
| 13> H       -0.250844    4.149729   -0.817426
| 14> H       -1.645581    3.906275    0.000000
| 15> *
| 16>
| 17> %maxcore 5000
| 18>
| 19> %pal
| 20> nprocs = 24
| 21> end
| 22>
| 23>
| 24>                          ****END OF INPUT****

CARTESIAN COORDINATES (ANGSTROEM)
---------------------------------
  Ag    -0.268639    1.507918    0.000000
  Ag     1.705052   -0.492854   -0.000000
  Ag    -0.647170   -0.911099    1.379441
  Ag    -0.647170   -0.911099   -1.379441
  N     -0.647170    3.675657    0.000000
  H     -0.250844    4.149729    0.817426
  H     -0.250844    4.149729   -0.817426
  H     -1.645581    3.906275    0.000000

 Total Charge           Charge          ....    2
 Multiplicity           Mult            ....    1
 Number of Electrons    NEL             ....   84
 Basis Dimension        Dim             ....  312

ORBITAL ENERGIES
----------------

  NO   OCC          E(Eh)            E(eV)
   0   2.0000     -14.429656      -392.6509
   1   2.0000      -3.940424      -107.2244
   2   2.0000      -3.940145      -107.2168
   3   2.0000      -3.940142      -107.2167
   4   2.0000      -3.929297      -106.9216
   5   2.0000      -2.566174       -69.8291
   6   2.0000      -2.563844       -69.7657
   7   2.0000      -2.563840       -69.7656
   8   2.0000      -2.562146       -69.7195
   9   2.0000      -2.562141       -69.7194
  10   2.0000      -2.561973       -69.7148
  11   2.0000      -2.561336       -69.6975
  12   2.0000      -2.561276       -69.6959
  13   2.0000      -2.561275       -69.6958
  14   2.0000      -2.552343       -69.4528
  15   2.0000      -2.549951       -69.3877
  16   2.0000      -2.549950       -69.3877
  17   2.0000      -1.126283       -30.6477
  18   2.0000      -0.744306       -20.2536
  19   2.0000      -0.744302       -20.2535
  20   2.0000      -0.685399       -18.6507
  21   2.0000      -0.656390       -17.8613
  22   2.0000      -0.647693       -17.6246
  23   2.0000      -0.647681       -17.6243
  24   2.0000      -0.638111       -17.3639
  25   2.0000      -0.637587       -17.3496
  26   2.0000      -0.637573       -17.3492
  27   2.0000      -0.628813       -17.1109
  28   2.0000      -0.623816       -16.9749
  29   2.0000      -0.623814       -16.9749
  30   2.0000      -0.607981       -16.5440
  31   2.0000      -0.607412       -16.5285
  32   2.0000      -0.607401       -16.5282
  33   2.0000      -0.606115       -16.4932
  34   2.0000      -0.606105       -16.4929
  35   2.0000      -0.598851       -16.2956
  36   2.0000      -0.598836       -16.2952
  37   2.0000      -0.591047       -16.0832
  38   2.0000      -0.585823       -15.9410
  39   2.0000      -0.585821       -15.9410
  40   2.0000      -0.576748       -15.6941
  41   2.0000      -0.556997       -15.1567
  42   0.0000      -0.434304       -11.8180
  43   0.0000      -0.434294       -11.8178
  44   0.0000      -0.405309       -11.0290
  45   0.0000      -0.316853        -8.6220
  46   0.0000      -0.308531        -8.3955

MULLIKEN ATOMIC CHARGES
-----------------------
   0 Ag:    0.423123
   1 Ag:    0.348816
   2 Ag:    0.347589
   3 Ag:    0.347604
   4 N :   -0.153621
   5 H :    0.228750
   6 H :    0.228750
   7 H :    0.228990
Sum of atomic charges:    2.0000000

LOEWDIN ATOMIC CHARGES
----------------------
   0 Ag:    0.422704
   1 Ag:    0.467247
   2 Ag:    0.467258
   3 Ag:    0.467259
   4 N :    0.407608
   5 H :   -0.077367
   6 H :   -0.077367
   7 H :   -0.077343

  Mayer bond orders larger than 0.100000
B(  0-Ag,  1-Ag) :   0.2404 B(  0-Ag,  2-Ag) :   0.2405 B(  0-Ag,  3-Ag) :   0.2405
B(  0-Ag,  4-N ) :   0.5167 B(  1-Ag,  2-Ag) :   0.5335 B(  1-Ag,  3-Ag) :   0.5335
B(  2-Ag,  3-Ag) :   0.5343 B(  4-N ,  5-H ) :   0.9722 B(  4-N ,  6-H ) :   0.9722
B(  4-N ,  7-H ) :   0.9720

Dispersion correction           -0.015492083
FINAL SINGLE POINT ENERGY      -643.874457969229

DIPOLE MOMENT
-------------
                                X             Y             Z
Electronic contribution:      8.66274     -49.20719      -0.00000
Nuclear contribution   :     -9.00166      51.14183       0.00000
                        -----------------------------------------
Total Dipole Moment    :     -0.33892       1.93464      -0.00000
                        -----------------------------------------
Magnitude (a.u.)       :      1.96411
Magnitude (Debye)      :      4.99236

Rotational constants in cm-1:     0.020466     0.015199     0.015198
Rotational constants in MHz :   613.555994   455.656791   455.636329

                             ****ORCA TERMINATED NORMALLY****
TOTAL RUN TIME: 0 days 0 hours 0 minutes 7 seconds 876 msec
