                         Program Version 4.2.0 -  RELEASE  -
|  1> #
|  2> # Ag04C2_H_A TPSS-D3BJ/Def2-TZVPPD
|  3> #
|  4> ! tpss d3bj def2-tzvppd def2/j grid4 nofinalgrid
|  5>
|  6> *xyz 2 2
|  7> Ag       0.000000    0.000000    1.733523
|  8> Ag       0.000000    1.616553   -0.602470
|  9> Ag      -1.399976   -0.808277   -0.602470
| 10> Ag       1.399976   -0.808277   -0.602470
| 11> H        0.000000    0.000000    3.472645
| 12> *
| 13>
| 14> %maxcore 5000
| 15>
| 16> %pal
| 17> nprocs = 24
| 18> end
| 19>
| 20>
| 21>                          ****END OF INPUT****

CARTESIAN COORDINATES (ANGSTROEM)
---------------------------------
  Ag     0.000000    0.000000    1.733523
  Ag     0.000000    1.616553   -0.602470
  Ag    -1.399976   -0.808277   -0.602470
  Ag     1.399976   -0.808277   -0.602470
  H      0.000000    0.000000    3.472645

 Total Charge           Charge          ....    2
 Multiplicity           Mult            ....    2
 Number of Electrons    NEL             ....   75
 Basis Dimension        Dim             ....  241

ORBITAL ENERGIES
----------------
                 SPIN UP ORBITALS
  NO   OCC          E(Eh)            E(eV)
   0   1.0000      -3.988079      -108.5211
   1   1.0000      -3.971054      -108.0579
   2   1.0000      -3.970830      -108.0518
   3   1.0000      -3.970827      -108.0517
   4   1.0000      -2.617520       -71.2263
   5   1.0000      -2.605405       -70.8967
   6   1.0000      -2.605403       -70.8966
   7   1.0000      -2.596572       -70.6563
   8   1.0000      -2.594561       -70.6016
   9   1.0000      -2.594561       -70.6016
  10   1.0000      -2.592748       -70.5523
  11   1.0000      -2.592744       -70.5522
  12   1.0000      -2.592744       -70.5521
  13   1.0000      -2.592132       -70.5355
  14   1.0000      -2.592130       -70.5354
  15   1.0000      -2.591833       -70.5274
  16   1.0000      -0.741580       -20.1794
  17   1.0000      -0.689247       -18.7554
  18   1.0000      -0.685204       -18.6453
  19   1.0000      -0.685183       -18.6448
  20   1.0000      -0.674026       -18.3412
  21   1.0000      -0.674019       -18.3410
  22   1.0000      -0.673375       -18.3235
  23   1.0000      -0.662155       -18.0181
  24   1.0000      -0.662145       -18.0179
  25   1.0000      -0.658503       -17.9188
  26   1.0000      -0.645777       -17.5725
  27   1.0000      -0.645772       -17.5723
  28   1.0000      -0.639310       -17.3965
  29   1.0000      -0.638715       -17.3803
  30   1.0000      -0.638705       -17.3800
  31   1.0000      -0.637482       -17.3468
  32   1.0000      -0.637463       -17.3462
  33   1.0000      -0.628869       -17.1124
  34   1.0000      -0.628866       -17.1123
  35   1.0000      -0.622898       -16.9499
  36   1.0000      -0.612663       -16.6714
  37   1.0000      -0.591423       -16.0934
  38   0.0000      -0.463021       -12.5994
  39   0.0000      -0.463019       -12.5994
  40   0.0000      -0.429152       -11.6778
  41   0.0000      -0.340689        -9.2706
  42   0.0000      -0.337178        -9.1751

                 SPIN DOWN ORBITALS
  NO   OCC          E(Eh)            E(eV)
   0   1.0000      -3.984806      -108.4321
   1   1.0000      -3.970890      -108.0534
   2   1.0000      -3.970667      -108.0473
   3   1.0000      -3.970664      -108.0472
   4   1.0000      -2.609568       -71.0100
   5   1.0000      -2.604461       -70.8710
   6   1.0000      -2.604460       -70.8710
   7   1.0000      -2.596116       -70.6439
   8   1.0000      -2.594235       -70.5927
   9   1.0000      -2.594235       -70.5927
  10   1.0000      -2.592712       -70.5513
  11   1.0000      -2.592710       -70.5512
  12   1.0000      -2.592614       -70.5486
  13   1.0000      -2.591949       -70.5305
  14   1.0000      -2.591947       -70.5305
  15   1.0000      -2.591843       -70.5276
  16   1.0000      -0.716780       -19.5046
  17   1.0000      -0.683651       -18.6031
  18   1.0000      -0.683632       -18.6026
  19   1.0000      -0.682651       -18.5759
  20   1.0000      -0.672803       -18.3079
  21   1.0000      -0.672796       -18.3077
  22   1.0000      -0.659937       -17.9578
  23   1.0000      -0.659450       -17.9446
  24   1.0000      -0.659440       -17.9443
  25   1.0000      -0.657803       -17.8997
  26   1.0000      -0.643462       -17.5095
  27   1.0000      -0.643458       -17.5094
  28   1.0000      -0.638915       -17.3858
  29   1.0000      -0.638340       -17.3701
  30   1.0000      -0.638328       -17.3698
  31   1.0000      -0.637082       -17.3359
  32   1.0000      -0.637062       -17.3353
  33   1.0000      -0.627423       -17.0730
  34   1.0000      -0.627418       -17.0729
  35   1.0000      -0.622815       -16.9476
  36   1.0000      -0.606462       -16.5027
  37   0.0000      -0.527141       -14.3442
  38   0.0000      -0.461627       -12.5615
  39   0.0000      -0.461625       -12.5615
  40   0.0000      -0.410830       -11.1793
  41   0.0000      -0.339633        -9.2419

MULLIKEN ATOMIC CHARGES AND SPIN POPULATIONS
--------------------------------------------
   0 Ag:    0.354412    0.291384
   1 Ag:    0.477835    0.033159
   2 Ag:    0.477815    0.033159
   3 Ag:    0.477814    0.033162
   4 H :    0.212125    0.609136
Sum of atomic charges         :    2.0000000

LOEWDIN ATOMIC CHARGES AND SPIN POPULATIONS
-------------------------------------------
   0 Ag:    0.433807    0.357161
   1 Ag:    0.500967    0.028482
   2 Ag:    0.500943    0.028484
   3 Ag:    0.500943    0.028484
   4 H :    0.063340    0.557389

  Mayer bond orders larger than 0.100000
B(  0-Ag,  1-Ag) :   0.3485 B(  0-Ag,  2-Ag) :   0.3485 B(  0-Ag,  3-Ag) :   0.3485
B(  0-Ag,  4-H ) :   0.5518 B(  1-Ag,  2-Ag) :   0.4145 B(  1-Ag,  3-Ag) :   0.4145
B(  2-Ag,  3-Ag) :   0.4144

Dispersion correction           -0.012266280
FINAL SINGLE POINT ENERGY      -587.728594579337

DIPOLE MOMENT
-------------
                                X             Y             Z
Electronic contribution:      0.00000       0.00004      -5.35152
Nuclear contribution   :      0.00000       0.00000       5.41329
                        -----------------------------------------
Total Dipole Moment    :      0.00000       0.00004       0.06176
                        -----------------------------------------
Magnitude (a.u.)       :      0.06176
Magnitude (Debye)      :      0.15699

Rotational constants in cm-1:     0.019934     0.019231     0.019231
Rotational constants in MHz :   597.606998   576.544336   576.544235

                             ****ORCA TERMINATED NORMALLY****
TOTAL RUN TIME: 0 days 0 hours 0 minutes 7 seconds 758 msec
