                         Program Version 4.2.0 -  RELEASE  -
|  1> #
|  2> # Au01N0_H TPSS-D3BJ/Def2-TZVPPD
|  3> #
|  4> ! tpss d3bj def2-tzvppd def2/j grid4 nofinalgrid
|  5>
|  6> *xyz 0 1
|  7> Au       0.000000    0.000000    0.019034
|  8> H        0.000000    0.000000   -1.503691
|  9> *
| 10>
| 11> %maxcore 5000
| 12>
| 13> %pal
| 14> nprocs = 24
| 15> end
| 16>
| 17>
| 18>                          ****END OF INPUT****

CARTESIAN COORDINATES (ANGSTROEM)
---------------------------------
  Au     0.000000    0.000000    0.019034
  H      0.000000    0.000000   -1.503691

 Total Charge           Charge          ....    0
 Multiplicity           Mult            ....    1
 Number of Electrons    NEL             ....   20
 Basis Dimension        Dim             ....   76

ORBITAL ENERGIES
----------------

  NO   OCC          E(Eh)            E(eV)
   0   2.0000      -4.034403      -109.7817
   1   2.0000      -2.257974       -61.4426
   2   2.0000      -2.233951       -60.7889
   3   2.0000      -2.233951       -60.7889
   4   2.0000      -0.392911       -10.6916
   5   2.0000      -0.283466        -7.7135
   6   2.0000      -0.283466        -7.7135
   7   2.0000      -0.262027        -7.1301
   8   2.0000      -0.262026        -7.1301
   9   2.0000      -0.235507        -6.4085
  10   0.0000      -0.111063        -3.0222
  11   0.0000      -0.020371        -0.5543
  12   0.0000      -0.020371        -0.5543
  13   0.0000       0.065207         1.7744
  14   0.0000       0.085886         2.3371

MULLIKEN ATOMIC CHARGES
-----------------------
   0 Au:   -0.174157
   1 H :    0.174157
Sum of atomic charges:    0.0000000

LOEWDIN ATOMIC CHARGES
----------------------
   0 Au:    0.350335
   1 H :   -0.350335

  Mayer bond orders larger than 0.100000
B(  0-Au,  1-H ) :   1.0173

Dispersion correction           -0.000543776
FINAL SINGLE POINT ENERGY      -136.293170456122

DIPOLE MOMENT
-------------
                                X             Y             Z
Electronic contribution:      0.00000      -0.00000       3.08770
Nuclear contribution   :      0.00000       0.00000      -2.58451
                        -----------------------------------------
Total Dipole Moment    :      0.00000      -0.00000       0.50319
                        -----------------------------------------
Magnitude (a.u.)       :      0.50319
Magnitude (Debye)      :      1.27900

Rotational constants in cm-1:     0.000000     7.249537     7.249537
Rotational constants in MHz :     0.000000 217335.666254 217335.666254

                             ****ORCA TERMINATED NORMALLY****
TOTAL RUN TIME: 0 days 0 hours 0 minutes 3 seconds 690 msec
