                         Program Version 4.2.0 -  RELEASE  -
|  1> #
|  2> # Au01N0_F TPSS-D3BJ/Def2-TZVPPD
|  3> #
|  4> ! tpss d3bj def2-tzvppd def2/j grid4 nofinalgrid
|  5>
|  6> *xyz 0 1
|  7> Au       0.000000    0.000000    0.196853
|  8> F        0.000000    0.000000   -1.727931
|  9> *
| 10>
| 11> %maxcore 5000
| 12>
| 13> %pal
| 14> nprocs = 24
| 15> end
| 16>
| 17>
| 18>                          ****END OF INPUT****

CARTESIAN COORDINATES (ANGSTROEM)
---------------------------------
  Au     0.000000    0.000000    0.196853
  F      0.000000    0.000000   -1.727931

 Total Charge           Charge          ....    0
 Multiplicity           Mult            ....    1
 Number of Electrons    NEL             ....   28
 Basis Dimension        Dim             ....   99

ORBITAL ENERGIES
----------------

  NO   OCC          E(Eh)            E(eV)
   0   2.0000     -24.371366      -663.1786
   1   2.0000      -4.055534      -110.3567
   2   2.0000      -2.279335       -62.0239
   3   2.0000      -2.256644       -61.4064
   4   2.0000      -2.256644       -61.4064
   5   2.0000      -1.036356       -28.2007
   6   2.0000      -0.409259       -11.1365
   7   2.0000      -0.352559        -9.5936
   8   2.0000      -0.352559        -9.5936
   9   2.0000      -0.286292        -7.7904
  10   2.0000      -0.286290        -7.7904
  11   2.0000      -0.263010        -7.1569
  12   2.0000      -0.263010        -7.1569
  13   2.0000      -0.259759        -7.0684
  14   0.0000      -0.177348        -4.8259
  15   0.0000      -0.018351        -0.4993
  16   0.0000      -0.018351        -0.4993
  17   0.0000       0.021924         0.5966
  18   0.0000       0.079448         2.1619

MULLIKEN ATOMIC CHARGES
-----------------------
   0 Au:    0.403198
   1 F :   -0.403198
Sum of atomic charges:   -0.0000000

LOEWDIN ATOMIC CHARGES
----------------------
   0 Au:    0.579922
   1 F :   -0.579922

  Mayer bond orders larger than 0.100000
B(  0-Au,  1-F ) :   0.8939

Dispersion correction           -0.000654839
FINAL SINGLE POINT ENERGY      -235.564407191388

DIPOLE MOMENT
-------------
                                X             Y             Z
Electronic contribution:     -0.00000      -0.00000      25.25406
Nuclear contribution   :      0.00000       0.00000     -23.77673
                        -----------------------------------------
Total Dipole Moment    :     -0.00000      -0.00000       1.47733
                        -----------------------------------------
Magnitude (a.u.)       :      1.47733
Magnitude (Debye)      :      3.75508

Rotational constants in cm-1:     0.000000     0.262612     0.262612
Rotational constants in MHz :     0.000000  7872.917876  7872.917876

                             ****ORCA TERMINATED NORMALLY****
TOTAL RUN TIME: 0 days 0 hours 0 minutes 3 seconds 803 msec
