                         Program Version 4.2.0 -  RELEASE  -
|  1> #
|  2> # Au01N0 TPSS-D3BJ/Def2-TZVPPD
|  3> #
|  4> ! tpss d3bj def2-tzvppd def2/j grid4 nofinalgrid
|  5>
|  6> *xyz 0 2
|  7> Au       0.000000    0.000000    0.000000
|  8> *
|  9>
| 10> %maxcore 5000
| 11>
| 12> %pal
| 13> nprocs = 24
| 14> end
| 15>
| 16>
| 17>                          ****END OF INPUT****

CARTESIAN COORDINATES (ANGSTROEM)
---------------------------------
  Au     0.000000    0.000000    0.000000

 Total Charge           Charge          ....    0
 Multiplicity           Mult            ....    2
 Number of Electrons    NEL             ....   19
 Basis Dimension        Dim             ....   59

ORBITAL ENERGIES
----------------
                 SPIN UP ORBITALS
  NO   OCC          E(Eh)            E(eV)
   0   1.0000      -4.000224      -108.8516
   1   1.0000      -2.209820       -60.1323
   2   1.0000      -2.209820       -60.1323
   3   1.0000      -2.209820       -60.1323
   4   1.0000      -0.255693        -6.9578
   5   1.0000      -0.255693        -6.9578
   6   1.0000      -0.255693        -6.9578
   7   1.0000      -0.255693        -6.9578
   8   1.0000      -0.255693        -6.9578
   9   1.0000      -0.218650        -5.9498
  10   0.0000      -0.026327        -0.7164
  11   0.0000      -0.026327        -0.7164
  12   0.0000      -0.026327        -0.7164
  13   0.0000       0.120406         3.2764
  14   0.0000       0.171155         4.6574

                 SPIN DOWN ORBITALS
  NO   OCC          E(Eh)            E(eV)
   0   1.0000      -3.999411      -108.8295
   1   1.0000      -2.209033       -60.1108
   2   1.0000      -2.209033       -60.1108
   3   1.0000      -2.209033       -60.1108
   4   1.0000      -0.244158        -6.6439
   5   1.0000      -0.244158        -6.6439
   6   1.0000      -0.244158        -6.6439
   7   1.0000      -0.244158        -6.6439
   8   1.0000      -0.244158        -6.6439
   9   0.0000      -0.186179        -5.0662
  10   0.0000      -0.001831        -0.0498
  11   0.0000      -0.001826        -0.0497
  12   0.0000      -0.001810        -0.0493
  13   0.0000       0.136938         3.7263

MULLIKEN ATOMIC CHARGES AND SPIN POPULATIONS
--------------------------------------------
   0 Au:    0.000000    1.000000
Sum of atomic charges         :    0.0000000

LOEWDIN ATOMIC CHARGES AND SPIN POPULATIONS
-------------------------------------------
   0 Au:    0.000000    1.000000

Dispersion correction            0.000000000
FINAL SINGLE POINT ENERGY      -135.673167738173

DIPOLE MOMENT
-------------
                                X             Y             Z
Electronic contribution:      0.00000      -0.00000      -0.00000
Nuclear contribution   :      0.00000       0.00000       0.00000
                        -----------------------------------------
Total Dipole Moment    :      0.00000      -0.00000      -0.00000
                        -----------------------------------------
Magnitude (a.u.)       :      0.00000
Magnitude (Debye)      :      0.00000

Rotational constants in cm-1:     0.000000     0.000000     0.000000
Rotational constants in MHz :     0.000000     0.000000     0.000000

                             ****ORCA TERMINATED NORMALLY****
TOTAL RUN TIME: 0 days 0 hours 0 minutes 3 seconds 499 msec
