                         Program Version 4.2.0 -  RELEASE  -
|  1> #
|  2> # Au02N0 TPSS-D3BJ/Def2-TZVPPD
|  3> #
|  4> ! tpss d3bj def2-tzvppd def2/j grid4 nofinalgrid
|  5>
|  6> *xyz 0 1
|  7> Au       0.000000    0.000000    1.239541
|  8> Au       0.000000    0.000000   -1.239541
|  9> *
| 10>
| 11> %maxcore 5000
| 12>
| 13> %pal
| 14> nprocs = 24
| 15> end
| 16>
| 17>
| 18>                          ****END OF INPUT****

CARTESIAN COORDINATES (ANGSTROEM)
---------------------------------
  Au     0.000000    0.000000    1.239541
  Au     0.000000    0.000000   -1.239541

 Total Charge           Charge          ....    0
 Multiplicity           Mult            ....    1
 Number of Electrons    NEL             ....   38
 Basis Dimension        Dim             ....  118

ORBITAL ENERGIES
----------------

  NO   OCC          E(Eh)            E(eV)
   0   2.0000      -4.010410      -109.1288
   1   2.0000      -4.009710      -109.1098
   2   2.0000      -2.232883       -60.7598
   3   2.0000      -2.221488       -60.4498
   4   2.0000      -2.215039       -60.2743
   5   2.0000      -2.215039       -60.2743
   6   2.0000      -2.213911       -60.2436
   7   2.0000      -2.213911       -60.2436
   8   2.0000      -0.333946        -9.0871
   9   2.0000      -0.293195        -7.9782
  10   2.0000      -0.293195        -7.9782
  11   2.0000      -0.255559        -6.9541
  12   2.0000      -0.255548        -6.9538
  13   2.0000      -0.242369        -6.5952
  14   2.0000      -0.242357        -6.5949
  15   2.0000      -0.234440        -6.3795
  16   2.0000      -0.230832        -6.2813
  17   2.0000      -0.230832        -6.2813
  18   2.0000      -0.227586        -6.1929
  19   0.0000      -0.147812        -4.0222
  20   0.0000      -0.035419        -0.9638
  21   0.0000      -0.035419        -0.9638
  22   0.0000      -0.019532        -0.5315
  23   0.0000       0.034081         0.9274

MULLIKEN ATOMIC CHARGES
-----------------------
   0 Au:   -0.000001
   1 Au:    0.000001
Sum of atomic charges:    0.0000000

LOEWDIN ATOMIC CHARGES
----------------------
   0 Au:   -0.000000
   1 Au:    0.000000

  Mayer bond orders larger than 0.100000
B(  0-Au,  1-Au) :   1.1544

Dispersion correction           -0.002049754
FINAL SINGLE POINT ENERGY      -271.431998985867

DIPOLE MOMENT
-------------
                                X             Y             Z
Electronic contribution:     -0.00000      -0.00000      -0.00000
Nuclear contribution   :      0.00000       0.00000       0.00000
                        -----------------------------------------
Total Dipole Moment    :     -0.00000      -0.00000      -0.00000
                        -----------------------------------------
Magnitude (a.u.)       :      0.00000
Magnitude (Debye)      :      0.00000

Rotational constants in cm-1:     0.000000     0.027852     0.027852
Rotational constants in MHz :     0.000000   834.974952   834.974952

                             ****ORCA TERMINATED NORMALLY****
TOTAL RUN TIME: 0 days 0 hours 0 minutes 4 seconds 104 msec
