                         Program Version 4.2.0 -  RELEASE  -
|  1> #
|  2> # Au03N0_LIN TPSS-D3BJ/Def2-TZVPPD
|  3> #
|  4> ! tpss d3bj def2-tzvppd def2/j grid4 nofinalgrid
|  5>
|  6> *xyz 0 2
|  7> Au       0.000000    0.000000    0.000000
|  8> Au       0.000000    0.000000    2.547414
|  9> Au       0.000000    0.000000   -2.547414
| 10> *
| 11>
| 12> %maxcore 5000
| 13>
| 14> %pal
| 15> nprocs = 24
| 16> end
| 17>
| 18>
| 19>                          ****END OF INPUT****

CARTESIAN COORDINATES (ANGSTROEM)
---------------------------------
  Au     0.000000    0.000000    0.000000
  Au     0.000000    0.000000    2.547414
  Au     0.000000    0.000000   -2.547414

 Total Charge           Charge          ....    0
 Multiplicity           Mult            ....    2
 Number of Electrons    NEL             ....   57
 Basis Dimension        Dim             ....  177

ORBITAL ENERGIES
----------------
                 SPIN UP ORBITALS
  NO   OCC          E(Eh)            E(eV)
   0   1.0000      -4.021889      -109.4412
   1   1.0000      -4.021881      -109.4409
   2   1.0000      -4.008911      -109.0880
   3   1.0000      -2.239575       -60.9419
   4   1.0000      -2.236754       -60.8652
   5   1.0000      -2.227447       -60.6119
   6   1.0000      -2.227447       -60.6119
   7   1.0000      -2.227425       -60.6113
   8   1.0000      -2.227425       -60.6113
   9   1.0000      -2.223531       -60.5053
  10   1.0000      -2.211686       -60.1830
  11   1.0000      -2.211686       -60.1830
  12   1.0000      -0.359005        -9.7690
  13   1.0000      -0.305417        -8.3108
  14   1.0000      -0.305417        -8.3108
  15   1.0000      -0.284009        -7.7283
  16   1.0000      -0.276297        -7.5184
  17   1.0000      -0.276297        -7.5184
  18   1.0000      -0.268719        -7.3122
  19   1.0000      -0.268706        -7.3119
  20   1.0000      -0.266254        -7.2451
  21   1.0000      -0.266242        -7.2448
  22   1.0000      -0.251965        -6.8563
  23   1.0000      -0.241206        -6.5636
  24   1.0000      -0.241189        -6.5631
  25   1.0000      -0.228009        -6.2044
  26   1.0000      -0.226235        -6.1562
  27   1.0000      -0.226235        -6.1562
  28   1.0000      -0.222886        -6.0650
  29   0.0000      -0.122277        -3.3273
  30   0.0000      -0.050982        -1.3873
  31   0.0000      -0.050982        -1.3873
  32   0.0000      -0.029999        -0.8163
  33   0.0000      -0.011429        -0.3110

                 SPIN DOWN ORBITALS
  NO   OCC          E(Eh)            E(eV)
   0   1.0000      -4.020993      -109.4168
   1   1.0000      -4.020984      -109.4165
   2   1.0000      -4.009064      -109.0922
   3   1.0000      -2.238166       -60.9036
   4   1.0000      -2.234963       -60.8164
   5   1.0000      -2.226963       -60.5988
   6   1.0000      -2.226963       -60.5988
   7   1.0000      -2.226941       -60.5981
   8   1.0000      -2.226941       -60.5981
   9   1.0000      -2.223326       -60.4998
  10   1.0000      -2.211989       -60.1913
  11   1.0000      -2.211989       -60.1913
  12   1.0000      -0.356105        -9.6901
  13   1.0000      -0.302061        -8.2195
  14   1.0000      -0.302061        -8.2195
  15   1.0000      -0.280373        -7.6293
  16   1.0000      -0.271439        -7.3862
  17   1.0000      -0.271439        -7.3862
  18   1.0000      -0.261781        -7.1234
  19   1.0000      -0.261767        -7.1231
  20   1.0000      -0.258430        -7.0322
  21   1.0000      -0.258418        -7.0319
  22   1.0000      -0.240491        -6.5441
  23   1.0000      -0.240474        -6.5436
  24   1.0000      -0.239795        -6.5252
  25   1.0000      -0.224332        -6.1044
  26   1.0000      -0.224332        -6.1044
  27   1.0000      -0.221297        -6.0218
  28   0.0000      -0.211065        -5.7434
  29   0.0000      -0.114205        -3.1077
  30   0.0000      -0.042658        -1.1608
  31   0.0000      -0.042658        -1.1608
  32   0.0000      -0.021231        -0.5777

MULLIKEN ATOMIC CHARGES AND SPIN POPULATIONS
--------------------------------------------
   0 Au:   -0.162603    0.022418
   1 Au:    0.081292    0.488789
   2 Au:    0.081312    0.488794
Sum of atomic charges         :   -0.0000000

LOEWDIN ATOMIC CHARGES AND SPIN POPULATIONS
-------------------------------------------
   0 Au:   -0.184921    0.271425
   1 Au:    0.092457    0.364285
   2 Au:    0.092464    0.364290

  Mayer bond orders larger than 0.100000
B(  0-Au,  1-Au) :   0.7236 B(  0-Au,  2-Au) :   0.7235 B(  1-Au,  2-Au) :   0.3528

Dispersion correction           -0.004853766
FINAL SINGLE POINT ENERGY      -407.151182779410

DIPOLE MOMENT
-------------
                                X             Y             Z
Electronic contribution:      0.00000      -0.00000      -0.00004
Nuclear contribution   :      0.00000       0.00000       0.00000
                        -----------------------------------------
Total Dipole Moment    :      0.00000      -0.00000      -0.00004
                        -----------------------------------------
Magnitude (a.u.)       :      0.00004
Magnitude (Debye)      :      0.00010

Rotational constants in cm-1:     0.000000     0.006594     0.006594
Rotational constants in MHz :     0.000000   197.695224   197.695224

                             ****ORCA TERMINATED NORMALLY****
TOTAL RUN TIME: 0 days 0 hours 0 minutes 5 seconds 389 msec
