                         Program Version 4.2.0 -  RELEASE  -
|  1> #
|  2> # Au03C1_LIN TPSS-D3BJ/Def2-TZVPPD
|  3> #
|  4> ! tpss d3bj def2-tzvppd def2/j grid4 nofinalgrid
|  5>
|  6> *xyz 1 1
|  7> Au       0.000000    0.000000    0.000000
|  8> Au       0.000000    0.000000    2.576864
|  9> Au       0.000000    0.000000   -2.576864
| 10> *
| 11>
| 12> %maxcore 5000
| 13>
| 14> %pal
| 15> nprocs = 24
| 16> end
| 17>
| 18>
| 19>                          ****END OF INPUT****

CARTESIAN COORDINATES (ANGSTROEM)
---------------------------------
  Au     0.000000    0.000000    0.000000
  Au     0.000000    0.000000    2.576864
  Au     0.000000    0.000000   -2.576864

 Total Charge           Charge          ....    1
 Multiplicity           Mult            ....    1
 Number of Electrons    NEL             ....   56
 Basis Dimension        Dim             ....  177

ORBITAL ENERGIES
----------------

  NO   OCC          E(Eh)            E(eV)
   0   2.0000      -4.221488      -114.8725
   1   2.0000      -4.221484      -114.8724
   2   2.0000      -4.187973      -113.9605
   3   2.0000      -2.436741       -66.3071
   4   2.0000      -2.435763       -66.2805
   5   2.0000      -2.429297       -66.1045
   6   2.0000      -2.429297       -66.1045
   7   2.0000      -2.429289       -66.1043
   8   2.0000      -2.429289       -66.1043
   9   2.0000      -2.406078       -65.4727
  10   2.0000      -2.390852       -65.0584
  11   2.0000      -2.390852       -65.0584
  12   2.0000      -0.546643       -14.8749
  13   2.0000      -0.494375       -13.4526
  14   2.0000      -0.494375       -13.4526
  15   2.0000      -0.480548       -13.0764
  16   2.0000      -0.472884       -12.8678
  17   2.0000      -0.472884       -12.8678
  18   2.0000      -0.464680       -12.6446
  19   2.0000      -0.464667       -12.6442
  20   2.0000      -0.463601       -12.6152
  21   2.0000      -0.463588       -12.6149
  22   2.0000      -0.433885       -11.8066
  23   2.0000      -0.421124       -11.4594
  24   2.0000      -0.421106       -11.4589
  25   2.0000      -0.416070       -11.3218
  26   2.0000      -0.416070       -11.3218
  27   2.0000      -0.404248       -11.0002
  28   0.0000      -0.403359       -10.9760
  29   0.0000      -0.292966        -7.9720
  30   0.0000      -0.206373        -5.6157
  31   0.0000      -0.206373        -5.6157
  32   0.0000      -0.188150        -5.1198

MULLIKEN ATOMIC CHARGES
-----------------------
   0 Au:   -0.014786
   1 Au:    0.507295
   2 Au:    0.507491
Sum of atomic charges:    1.0000000

LOEWDIN ATOMIC CHARGES
----------------------
   0 Au:    0.127594
   1 Au:    0.436126
   2 Au:    0.436280

  Mayer bond orders larger than 0.100000
B(  0-Au,  1-Au) :   0.6632 B(  0-Au,  2-Au) :   0.6630 B(  1-Au,  2-Au) :   0.4954

Dispersion correction           -0.004809892
FINAL SINGLE POINT ENERGY      -406.836214297979

DIPOLE MOMENT
-------------
                                X             Y             Z
Electronic contribution:     -0.00000       0.00000      -0.00092
Nuclear contribution   :      0.00000       0.00000       0.00000
                        -----------------------------------------
Total Dipole Moment    :     -0.00000       0.00000      -0.00092
                        -----------------------------------------
Magnitude (a.u.)       :      0.00092
Magnitude (Debye)      :      0.00234

Rotational constants in cm-1:     0.000000     0.006445     0.006445
Rotational constants in MHz :     0.000000   193.202279   193.202279

                             ****ORCA TERMINATED NORMALLY****
TOTAL RUN TIME: 0 days 0 hours 0 minutes 5 seconds 50 msec
