                         Program Version 4.2.0 -  RELEASE  -
|  1> #
|  2> # Au03N0_D3H TPSS-D3BJ/Def2-TZVPPD
|  3> #
|  4> ! tpss d3bj def2-tzvppd def2/j grid4 nofinalgrid slowconv
|  5>
|  6> *xyz 0 2
|  7> Au       0.000000    1.515176   -0.000000
|  8> Au       1.312181   -0.757588    0.000000
|  9> Au      -1.312181   -0.757588   -0.000000
| 10> *
| 11>
| 12> %maxcore 5000
| 13>
| 14> %pal
| 15> nprocs = 24
| 16> end
| 17>
| 18>
| 19>                          ****END OF INPUT****

CARTESIAN COORDINATES (ANGSTROEM)
---------------------------------
  Au     0.000000    1.515176   -0.000000
  Au     1.312181   -0.757588    0.000000
  Au    -1.312181   -0.757588   -0.000000

 Total Charge           Charge          ....    0
 Multiplicity           Mult            ....    2
 Number of Electrons    NEL             ....   57
 Basis Dimension        Dim             ....  177

ORBITAL ENERGIES
----------------
                 SPIN UP ORBITALS
  NO   OCC          E(Eh)            E(eV)
   0   1.0000      -4.028831      -109.6301
   1   1.0000      -4.028511      -109.6214
   2   1.0000      -4.019012      -109.3629
   3   1.0000      -2.246675       -61.1351
   4   1.0000      -2.240862       -60.9769
   5   1.0000      -2.237719       -60.8914
   6   1.0000      -2.235471       -60.8303
   7   1.0000      -2.232603       -60.7522
   8   1.0000      -2.232002       -60.7359
   9   1.0000      -2.230686       -60.7000
  10   1.0000      -2.226963       -60.5987
  11   1.0000      -2.219397       -60.3929
  12   1.0000      -0.366183        -9.9644
  13   1.0000      -0.324878        -8.8404
  14   1.0000      -0.320834        -8.7303
  15   1.0000      -0.312287        -8.4978
  16   1.0000      -0.296241        -8.0611
  17   1.0000      -0.284496        -7.7415
  18   1.0000      -0.280521        -7.6334
  19   1.0000      -0.264758        -7.2044
  20   1.0000      -0.257920        -7.0183
  21   1.0000      -0.254223        -6.9178
  22   1.0000      -0.251224        -6.8361
  23   1.0000      -0.251215        -6.8359
  24   1.0000      -0.244799        -6.6613
  25   1.0000      -0.243891        -6.6366
  26   1.0000      -0.243330        -6.6213
  27   1.0000      -0.226598        -6.1660
  28   1.0000      -0.164835        -4.4854
  29   0.0000      -0.165110        -4.4929
  30   0.0000      -0.058337        -1.5874
  31   0.0000      -0.041879        -1.1396
  32   0.0000      -0.023210        -0.6316
  33   0.0000      -0.022553        -0.6137

                 SPIN DOWN ORBITALS
  NO   OCC          E(Eh)            E(eV)
   0   1.0000      -4.027999      -109.6074
   1   1.0000      -4.027679      -109.5987
   2   1.0000      -4.016910      -109.3057
   3   1.0000      -2.245590       -61.1056
   4   1.0000      -2.239671       -60.9446
   5   1.0000      -2.236384       -60.8551
   6   1.0000      -2.234395       -60.8010
   7   1.0000      -2.232078       -60.7379
   8   1.0000      -2.231479       -60.7216
   9   1.0000      -2.228199       -60.6324
  10   1.0000      -2.224704       -60.5373
  11   1.0000      -2.217531       -60.3421
  12   1.0000      -0.361800        -9.8451
  13   1.0000      -0.322332        -8.7711
  14   1.0000      -0.313246        -8.5239
  15   1.0000      -0.310085        -8.4378
  16   1.0000      -0.291987        -7.9454
  17   1.0000      -0.282616        -7.6904
  18   1.0000      -0.276931        -7.5357
  19   1.0000      -0.262034        -7.1303
  20   1.0000      -0.256303        -6.9744
  21   1.0000      -0.252620        -6.8741
  22   1.0000      -0.251065        -6.8318
  23   1.0000      -0.244999        -6.6668
  24   1.0000      -0.239327        -6.5124
  25   1.0000      -0.237889        -6.4733
  26   1.0000      -0.236655        -6.4397
  27   1.0000      -0.219390        -5.9699
  28   0.0000      -0.158537        -4.3140
  29   0.0000      -0.140648        -3.8272
  30   0.0000      -0.053027        -1.4430
  31   0.0000      -0.032266        -0.8780
  32   0.0000      -0.013188        -0.3589

MULLIKEN ATOMIC CHARGES AND SPIN POPULATIONS
--------------------------------------------
   0 Au:   -0.099019    0.624801
   1 Au:    0.049511    0.187599
   2 Au:    0.049508    0.187600
Sum of atomic charges         :   -0.0000000

LOEWDIN ATOMIC CHARGES AND SPIN POPULATIONS
-------------------------------------------
   0 Au:   -0.063318    0.529481
   1 Au:    0.031659    0.235259
   2 Au:    0.031659    0.235260

  Mayer bond orders larger than 0.100000
B(  0-Au,  1-Au) :   0.6639 B(  0-Au,  2-Au) :   0.6639 B(  1-Au,  2-Au) :   0.7938

Dispersion correction           -0.006110190
FINAL SINGLE POINT ENERGY      -407.151958298846

DIPOLE MOMENT
-------------
                                X             Y             Z
Electronic contribution:      0.00000      -0.45985      -0.00000
Nuclear contribution   :      0.00000       0.00000       0.00000
                        -----------------------------------------
Total Dipole Moment    :      0.00000      -0.45985      -0.00000
                        -----------------------------------------
Magnitude (a.u.)       :      0.45985
Magnitude (Debye)      :      1.16885

Rotational constants in cm-1:     0.024853     0.024853     0.012427
Rotational constants in MHz :   745.088417   745.088311   372.544182

                             ****ORCA TERMINATED NORMALLY****
TOTAL RUN TIME: 0 days 0 hours 0 minutes 7 seconds 724 msec
