                         Program Version 4.2.0 -  RELEASE  -
|  1> #
|  2> # Au03C1_D3H TPSS-D3BJ/Def2-TZVPPD
|  3> #
|  4> ! tpss d3bj def2-tzvppd def2/j grid4 nofinalgrid
|  5>
|  6> *xyz 1 1
|  7> Au       0.000000    1.501400   -0.000000
|  8> Au       1.300251   -0.750700   -0.000000
|  9> Au      -1.300251   -0.750700   -0.000000
| 10> *
| 11>
| 12> %maxcore 5000
| 13>
| 14> %pal
| 15> nprocs = 24
| 16> end
| 17>
| 18>
| 19>                          ****END OF INPUT****

CARTESIAN COORDINATES (ANGSTROEM)
---------------------------------
  Au     0.000000    1.501400   -0.000000
  Au     1.300251   -0.750700   -0.000000
  Au    -1.300251   -0.750700   -0.000000

 Total Charge           Charge          ....    1
 Multiplicity           Mult            ....    1
 Number of Electrons    NEL             ....   56
 Basis Dimension        Dim             ....  177

ORBITAL ENERGIES
----------------

  NO   OCC          E(Eh)            E(eV)
   0   2.0000      -4.224788      -114.9623
   1   2.0000      -4.224249      -114.9477
   2   2.0000      -4.224248      -114.9476
   3   2.0000      -2.445429       -66.5435
   4   2.0000      -2.438626       -66.3584
   5   2.0000      -2.438619       -66.3582
   6   2.0000      -2.433084       -66.2076
   7   2.0000      -2.433067       -66.2071
   8   2.0000      -2.431056       -66.1524
   9   2.0000      -2.427521       -66.0562
  10   2.0000      -2.426541       -66.0295
  11   2.0000      -2.426536       -66.0294
  12   2.0000      -0.566342       -15.4109
  13   2.0000      -0.523061       -14.2332
  14   2.0000      -0.523057       -14.2331
  15   2.0000      -0.511459       -13.9175
  16   2.0000      -0.493270       -13.4226
  17   2.0000      -0.480235       -13.0679
  18   2.0000      -0.480229       -13.0677
  19   2.0000      -0.453964       -12.3530
  20   2.0000      -0.452539       -12.3142
  21   2.0000      -0.452535       -12.3141
  22   2.0000      -0.445796       -12.1307
  23   2.0000      -0.445785       -12.1304
  24   2.0000      -0.443351       -12.0642
  25   2.0000      -0.443208       -12.0603
  26   2.0000      -0.443206       -12.0603
  27   2.0000      -0.421212       -11.4618
  28   0.0000      -0.338299        -9.2056
  29   0.0000      -0.338298        -9.2056
  30   0.0000      -0.223640        -6.0856
  31   0.0000      -0.198954        -5.4138
  32   0.0000      -0.184040        -5.0080

MULLIKEN ATOMIC CHARGES
-----------------------
   0 Au:    0.333360
   1 Au:    0.333324
   2 Au:    0.333317
Sum of atomic charges:    1.0000000

LOEWDIN ATOMIC CHARGES
----------------------
   0 Au:    0.333329
   1 Au:    0.333336
   2 Au:    0.333335

  Mayer bond orders larger than 0.100000
B(  0-Au,  1-Au) :   0.6952 B(  0-Au,  2-Au) :   0.6952 B(  1-Au,  2-Au) :   0.6952

Dispersion correction           -0.006115529
FINAL SINGLE POINT ENERGY      -406.900699910109

DIPOLE MOMENT
-------------
                                X             Y             Z
Electronic contribution:      0.00000      -0.00005       0.00000
Nuclear contribution   :      0.00000       0.00000      -0.00000
                        -----------------------------------------
Total Dipole Moment    :      0.00000      -0.00005       0.00000
                        -----------------------------------------
Magnitude (a.u.)       :      0.00005
Magnitude (Debye)      :      0.00013

Rotational constants in cm-1:     0.025312     0.025312     0.012656
Rotational constants in MHz :   758.824167   758.823632   379.411950

                             ****ORCA TERMINATED NORMALLY****
TOTAL RUN TIME: 0 days 0 hours 0 minutes 5 seconds 62 msec
