                         Program Version 4.2.0 -  RELEASE  -
|  1> #
|  2> # Au04C2_NH3_A TPSS-D3BJ/Def2-TZVPPD
|  3> #
|  4> ! tpss d3bj def2-tzvppd def2/j grid4 nofinalgrid
|  5>
|  6> *xyz 2 1
|  7> Au      -0.274490    1.572639   -0.000000
|  8> Au       1.635934   -0.418177    0.000000
|  9> Au      -0.639028   -0.815642    1.333593
| 10> Au      -0.639028   -0.815642   -1.333593
| 11> N       -0.639028    3.654013   -0.000000
| 12> H       -0.235750    4.112347    0.824759
| 13> H       -0.235750    4.112347   -0.824759
| 14> H       -1.642949    3.866239   -0.000000
| 15> *
| 16>
| 17> %maxcore 5000
| 18>
| 19> %pal
| 20> nprocs = 24
| 21> end
| 22>
| 23>
| 24>                          ****END OF INPUT****

CARTESIAN COORDINATES (ANGSTROEM)
---------------------------------
  Au    -0.274490    1.572639   -0.000000
  Au     1.635934   -0.418177    0.000000
  Au    -0.639028   -0.815642    1.333593
  Au    -0.639028   -0.815642   -1.333593
  N     -0.639028    3.654013   -0.000000
  H     -0.235750    4.112347    0.824759
  H     -0.235750    4.112347   -0.824759
  H     -1.642949    3.866239   -0.000000

 Total Charge           Charge          ....    2
 Multiplicity           Mult            ....    1
 Number of Electrons    NEL             ....   84
 Basis Dimension        Dim             ....  324

ORBITAL ENERGIES
----------------

  NO   OCC          E(Eh)            E(eV)
   0   2.0000     -14.474663      -393.8756
   1   2.0000      -4.372892      -118.9924
   2   2.0000      -4.372624      -118.9851
   3   2.0000      -4.372414      -118.9794
   4   2.0000      -4.372399      -118.9790
   5   2.0000      -2.592692       -70.5507
   6   2.0000      -2.588717       -70.4426
   7   2.0000      -2.585823       -70.3638
   8   2.0000      -2.585812       -70.3635
   9   2.0000      -2.579693       -70.1970
  10   2.0000      -2.579693       -70.1970
  11   2.0000      -2.577974       -70.1502
  12   2.0000      -2.577583       -70.1396
  13   2.0000      -2.577364       -70.1336
  14   2.0000      -2.577347       -70.1332
  15   2.0000      -2.574083       -70.0444
  16   2.0000      -2.574073       -70.0441
  17   2.0000      -1.165640       -31.7187
  18   2.0000      -0.783965       -21.3328
  19   2.0000      -0.783957       -21.3325
  20   2.0000      -0.747427       -20.3385
  21   2.0000      -0.695954       -18.9379
  22   2.0000      -0.670010       -18.2319
  23   2.0000      -0.669970       -18.2308
  24   2.0000      -0.661965       -18.0130
  25   2.0000      -0.650266       -17.6946
  26   2.0000      -0.650263       -17.6946
  27   2.0000      -0.633092       -17.2273
  28   2.0000      -0.626866       -17.0579
  29   2.0000      -0.626863       -17.0578
  30   2.0000      -0.624532       -16.9944
  31   2.0000      -0.597865       -16.2687
  32   2.0000      -0.597855       -16.2685
  33   2.0000      -0.594191       -16.1688
  34   2.0000      -0.594188       -16.1687
  35   2.0000      -0.593993       -16.1634
  36   2.0000      -0.592399       -16.1200
  37   2.0000      -0.592394       -16.1199
  38   2.0000      -0.570459       -15.5230
  39   2.0000      -0.570452       -15.5228
  40   2.0000      -0.569515       -15.4973
  41   2.0000      -0.566937       -15.4271
  42   0.0000      -0.476393       -12.9633
  43   0.0000      -0.476375       -12.9628
  44   0.0000      -0.428602       -11.6628
  45   0.0000      -0.329003        -8.9526
  46   0.0000      -0.322580        -8.7778

MULLIKEN ATOMIC CHARGES
-----------------------
   0 Au:    0.241812
   1 Au:    0.409943
   2 Au:    0.409852
   3 Au:    0.409862
   4 N :   -0.238015
   5 H :    0.255536
   6 H :    0.255536
   7 H :    0.255474
Sum of atomic charges:    2.0000000

LOEWDIN ATOMIC CHARGES
----------------------
   0 Au:    0.426851
   1 Au:    0.446567
   2 Au:    0.446593
   3 Au:    0.446593
   4 N :    0.402058
   5 H :   -0.056222
   6 H :   -0.056221
   7 H :   -0.056220

  Mayer bond orders larger than 0.100000
B(  0-Au,  1-Au) :   0.3488 B(  0-Au,  2-Au) :   0.3487 B(  0-Au,  3-Au) :   0.3487
B(  0-Au,  4-N ) :   0.6702 B(  1-Au,  2-Au) :   0.5657 B(  1-Au,  3-Au) :   0.5657
B(  2-Au,  3-Au) :   0.5654 B(  4-N ,  5-H ) :   0.9386 B(  4-N ,  6-H ) :   0.9386
B(  4-N ,  7-H ) :   0.9386

Dispersion correction           -0.016740988
FINAL SINGLE POINT ENERGY      -598.905713169916

DIPOLE MOMENT
-------------
                                X             Y             Z
Electronic contribution:     10.05310     -57.48677       0.00000
Nuclear contribution   :    -10.53350      60.23199       0.00000
                        -----------------------------------------
Total Dipole Moment    :     -0.48040       2.74522       0.00000
                        -----------------------------------------
Magnitude (a.u.)       :      2.78694
Magnitude (Debye)      :      7.08383

Rotational constants in cm-1:     0.012010     0.009744     0.009743
Rotational constants in MHz :   360.039216   292.121240   292.077350

                             ****ORCA TERMINATED NORMALLY****
TOTAL RUN TIME: 0 days 0 hours 0 minutes 8 seconds 77 msec
