                         Program Version 4.2.0 -  RELEASE  -
|  1> #
|  2> # Au04C2_NH3_F TPSS-D3BJ/Def2-TZVPPD
|  3> #
|  4> ! tpss d3bj def2-tzvppd def2/j grid4 nofinalgrid
|  5>
|  6> *xyz 2 1
|  7> Au       0.000000    1.548281   -0.453246
|  8> Au       1.340851   -0.774141   -0.453246
|  9> Au      -1.340851   -0.774141   -0.453246
| 10> Au       0.000000    0.000000    1.783664
| 11> N        0.000000    0.000000   -3.226055
| 12> H       -0.813891    0.469900   -3.635956
| 13> H        0.813891    0.469900   -3.635956
| 14> H       -0.000000   -0.939800   -3.635956
| 15> *
| 16>
| 17> %maxcore 5000
| 18>
| 19> %pal
| 20> nprocs = 24
| 21> end
| 22>
| 23>
| 24>                          ****END OF INPUT****

CARTESIAN COORDINATES (ANGSTROEM)
---------------------------------
  Au     0.000000    1.548281   -0.453246
  Au     1.340851   -0.774141   -0.453246
  Au    -1.340851   -0.774141   -0.453246
  Au     0.000000    0.000000    1.783664
  N      0.000000    0.000000   -3.226055
  H     -0.813891    0.469900   -3.635956
  H      0.813891    0.469900   -3.635956
  H     -0.000000   -0.939800   -3.635956

 Total Charge           Charge          ....    2
 Multiplicity           Mult            ....    1
 Number of Electrons    NEL             ....   84
 Basis Dimension        Dim             ....  324

ORBITAL ENERGIES
----------------

  NO   OCC          E(Eh)            E(eV)
   0   2.0000     -14.417694      -392.3254
   1   2.0000      -4.382943      -119.2659
   2   2.0000      -4.382592      -119.2564
   3   2.0000      -4.382592      -119.2564
   4   2.0000      -4.376908      -119.1017
   5   2.0000      -2.601014       -70.7772
   6   2.0000      -2.595649       -70.6312
   7   2.0000      -2.595644       -70.6311
   8   2.0000      -2.591466       -70.5174
   9   2.0000      -2.590250       -70.4843
  10   2.0000      -2.590237       -70.4839
  11   2.0000      -2.588198       -70.4285
  12   2.0000      -2.587885       -70.4199
  13   2.0000      -2.587885       -70.4199
  14   2.0000      -2.587617       -70.4126
  15   2.0000      -2.582637       -70.2771
  16   2.0000      -2.582633       -70.2770
  17   2.0000      -1.114039       -30.3146
  18   2.0000      -0.741184       -20.1686
  19   2.0000      -0.733274       -19.9534
  20   2.0000      -0.733273       -19.9534
  21   2.0000      -0.685676       -18.6582
  22   2.0000      -0.681641       -18.5484
  23   2.0000      -0.681640       -18.5484
  24   2.0000      -0.662008       -18.0142
  25   2.0000      -0.662006       -18.0141
  26   2.0000      -0.646056       -17.5801
  27   2.0000      -0.641817       -17.4647
  28   2.0000      -0.638911       -17.3856
  29   2.0000      -0.638906       -17.3855
  30   2.0000      -0.608337       -16.5537
  31   2.0000      -0.608336       -16.5537
  32   2.0000      -0.606335       -16.4992
  33   2.0000      -0.605795       -16.4845
  34   2.0000      -0.604587       -16.4516
  35   2.0000      -0.604581       -16.4515
  36   2.0000      -0.602537       -16.3959
  37   2.0000      -0.602531       -16.3957
  38   2.0000      -0.580448       -15.7948
  39   2.0000      -0.579297       -15.7635
  40   2.0000      -0.579295       -15.7634
  41   2.0000      -0.560724       -15.2581
  42   0.0000      -0.486612       -13.2414
  43   0.0000      -0.486611       -13.2414
  44   0.0000      -0.475110       -12.9284
  45   0.0000      -0.344141        -9.3646
  46   0.0000      -0.333493        -9.0748

MULLIKEN ATOMIC CHARGES
-----------------------
   0 Au:    0.459855
   1 Au:    0.459343
   2 Au:    0.459340
   3 Au:    0.396030
   4 N :   -0.350052
   5 H :    0.191957
   6 H :    0.191956
   7 H :    0.191571
Sum of atomic charges:    2.0000000

LOEWDIN ATOMIC CHARGES
----------------------
   0 Au:    0.457605
   1 Au:    0.457574
   2 Au:    0.457573
   3 Au:    0.460512
   4 N :    0.455832
   5 H :   -0.096362
   6 H :   -0.096362
   7 H :   -0.096372

  Mayer bond orders larger than 0.100000
B(  0-Au,  1-Au) :   0.4807 B(  0-Au,  2-Au) :   0.4807 B(  0-Au,  3-Au) :   0.4865
B(  1-Au,  2-Au) :   0.4810 B(  1-Au,  3-Au) :   0.4866 B(  2-Au,  3-Au) :   0.4866
B(  3-Au,  4-N ) :   0.1003 B(  4-N ,  5-H ) :   0.9908 B(  4-N ,  6-H ) :   0.9908
B(  4-N ,  7-H ) :   0.9915

Dispersion correction           -0.018476771
FINAL SINGLE POINT ENERGY      -598.839497914680

DIPOLE MOMENT
-------------
                                X             Y             Z
Electronic contribution:     -0.00000      -0.00001      51.48518
Nuclear contribution   :      0.00000       0.00000     -53.58194
                        -----------------------------------------
Total Dipole Moment    :     -0.00000      -0.00001      -2.09677
                        -----------------------------------------
Magnitude (a.u.)       :      2.09677
Magnitude (Debye)      :      5.32956

Rotational constants in cm-1:     0.011879     0.010264     0.010264
Rotational constants in MHz :   356.111583   307.700803   307.700796

                             ****ORCA TERMINATED NORMALLY****
TOTAL RUN TIME: 0 days 0 hours 0 minutes 8 seconds 892 msec
