                         Program Version 4.2.0 -  RELEASE  -
|  1> #
|  2> # Au04C2_H_E TPSS-D3BJ/Def2-TZVPPD
|  3> #
|  4> ! tpss d3bj def2-tzvppd def2/j grid4 nofinalgrid
|  5>
|  6> *xyz 2 2
|  7> Au       0.000000    1.337591    1.056475
|  8> Au      -0.000000   -1.337591    1.056475
|  9> Au      -1.306954    0.000000   -1.070288
| 10> Au       1.306954   -0.000000   -1.070288
| 11> H       -0.000000    0.000000    2.182427
| 12> *
| 13>
| 14> %maxcore 5000
| 15>
| 16> %pal
| 17> nprocs = 24
| 18> end
| 19>
| 20>
| 21>                          ****END OF INPUT****

CARTESIAN COORDINATES (ANGSTROEM)
---------------------------------
  Au     0.000000    1.337591    1.056475
  Au    -0.000000   -1.337591    1.056475
  Au    -1.306954    0.000000   -1.070288
  Au     1.306954   -0.000000   -1.070288
  H     -0.000000    0.000000    2.182427

 Total Charge           Charge          ....    2
 Multiplicity           Mult            ....    2
 Number of Electrons    NEL             ....   75
 Basis Dimension        Dim             ....  253

ORBITAL ENERGIES
----------------
                 SPIN UP ORBITALS
  NO   OCC          E(Eh)            E(eV)
   0   1.0000      -4.437070      -120.7388
   1   1.0000      -4.436826      -120.7322
   2   1.0000      -4.406749      -119.9137
   3   1.0000      -4.406416      -119.9047
   4   1.0000      -2.655834       -72.2689
   5   1.0000      -2.651306       -72.1457
   6   1.0000      -2.646058       -72.0029
   7   1.0000      -2.644618       -71.9637
   8   1.0000      -2.637593       -71.7725
   9   1.0000      -2.637078       -71.7585
  10   1.0000      -2.623237       -71.3819
  11   1.0000      -2.618171       -71.2440
  12   1.0000      -2.613903       -71.1279
  13   1.0000      -2.611911       -71.0737
  14   1.0000      -2.611853       -71.0721
  15   1.0000      -2.611258       -71.0559
  16   1.0000      -0.821537       -22.3552
  17   1.0000      -0.765935       -20.8421
  18   1.0000      -0.717183       -19.5155
  19   1.0000      -0.714837       -19.4517
  20   1.0000      -0.709170       -19.2975
  21   1.0000      -0.696233       -18.9455
  22   1.0000      -0.688091       -18.7239
  23   1.0000      -0.687172       -18.6989
  24   1.0000      -0.674622       -18.3574
  25   1.0000      -0.671629       -18.2760
  26   1.0000      -0.661649       -18.0044
  27   1.0000      -0.655075       -17.8255
  28   1.0000      -0.650794       -17.7090
  29   1.0000      -0.650094       -17.6900
  30   1.0000      -0.642891       -17.4940
  31   1.0000      -0.636495       -17.3199
  32   1.0000      -0.630388       -17.1537
  33   1.0000      -0.627794       -17.0831
  34   1.0000      -0.625427       -17.0187
  35   1.0000      -0.620898       -16.8955
  36   1.0000      -0.611196       -16.6315
  37   1.0000      -0.567588       -15.4448
  38   0.0000      -0.526122       -14.3165
  39   0.0000      -0.507502       -13.8098
  40   0.0000      -0.445486       -12.1223
  41   0.0000      -0.373808       -10.1718
  42   0.0000      -0.370034       -10.0691

                 SPIN DOWN ORBITALS
  NO   OCC          E(Eh)            E(eV)
   0   1.0000      -4.433571      -120.6436
   1   1.0000      -4.433327      -120.6370
   2   1.0000      -4.405498      -119.8797
   3   1.0000      -4.405165      -119.8706
   4   1.0000      -2.649493       -72.0964
   5   1.0000      -2.644518       -71.9610
   6   1.0000      -2.641979       -71.8919
   7   1.0000      -2.640923       -71.8632
   8   1.0000      -2.636148       -71.7332
   9   1.0000      -2.635634       -71.7192
  10   1.0000      -2.621482       -71.3341
  11   1.0000      -2.616443       -71.1970
  12   1.0000      -2.612154       -71.0803
  13   1.0000      -2.611121       -71.0522
  14   1.0000      -2.610532       -71.0362
  15   1.0000      -2.610147       -71.0257
  16   1.0000      -0.807066       -21.9614
  17   1.0000      -0.760447       -20.6928
  18   1.0000      -0.714623       -19.4459
  19   1.0000      -0.711184       -19.3523
  20   1.0000      -0.705032       -19.1849
  21   1.0000      -0.692815       -18.8525
  22   1.0000      -0.684372       -18.6227
  23   1.0000      -0.684152       -18.6167
  24   1.0000      -0.668089       -18.1796
  25   1.0000      -0.667837       -18.1728
  26   1.0000      -0.658082       -17.9073
  27   1.0000      -0.653432       -17.7808
  28   1.0000      -0.646802       -17.6004
  29   1.0000      -0.645656       -17.5692
  30   1.0000      -0.638932       -17.3862
  31   1.0000      -0.632307       -17.2059
  32   1.0000      -0.625333       -17.0162
  33   1.0000      -0.625133       -17.0107
  34   1.0000      -0.623722       -16.9724
  35   1.0000      -0.616809       -16.7842
  36   1.0000      -0.606562       -16.5054
  37   0.0000      -0.551362       -15.0033
  38   0.0000      -0.520641       -14.1674
  39   0.0000      -0.503848       -13.7104
  40   0.0000      -0.432720       -11.7749
  41   0.0000      -0.367002        -9.9866

MULLIKEN ATOMIC CHARGES AND SPIN POPULATIONS
--------------------------------------------
   0 Au:    0.452299    0.189314
   1 Au:    0.452296    0.189312
   2 Au:    0.435070    0.222004
   3 Au:    0.435075    0.222005
   4 H :    0.225260    0.177365
Sum of atomic charges         :    2.0000000

LOEWDIN ATOMIC CHARGES AND SPIN POPULATIONS
-------------------------------------------
   0 Au:    0.589857    0.258080
   1 Au:    0.589856    0.258080
   2 Au:    0.478099    0.177418
   3 Au:    0.478099    0.177418
   4 H :   -0.135911    0.129006

  Mayer bond orders larger than 0.100000
B(  0-Au,  1-Au) :   0.6577 B(  0-Au,  2-Au) :   0.3902 B(  0-Au,  3-Au) :   0.3902
B(  0-Au,  4-H ) :   0.4284 B(  1-Au,  2-Au) :   0.3902 B(  1-Au,  3-Au) :   0.3902
B(  1-Au,  4-H ) :   0.4284 B(  2-Au,  3-Au) :   0.7375

Dispersion correction           -0.013884792
FINAL SINGLE POINT ENERGY      -542.763217740117

DIPOLE MOMENT
-------------
                                X             Y             Z
Electronic contribution:      0.00000      -0.00000      -3.42414
Nuclear contribution   :      0.00000       0.00000       3.73018
                        -----------------------------------------
Total Dipole Moment    :      0.00000      -0.00000       0.30604
                        -----------------------------------------
Magnitude (a.u.)       :      0.30604
Magnitude (Debye)      :      0.77790

Rotational constants in cm-1:     0.012236     0.010747     0.010533
Rotational constants in MHz :   366.830155   322.181581   315.756842

                             ****ORCA TERMINATED NORMALLY****
TOTAL RUN TIME: 0 days 0 hours 0 minutes 7 seconds 424 msec
