                         Program Version 4.2.0 -  RELEASE  -
|  1> #
|  2> # Au04C2_H_A TPSS-D3BJ/Def2-TZVPPD
|  3> #
|  4> ! tpss d3bj def2-tzvppd def2/j grid4 nofinalgrid
|  5>
|  6> *xyz 2 2
|  7> Au       0.000000    0.000000    1.750714
|  8> Au      -0.000000    1.549973   -0.597614
|  9> Au       1.342316   -0.774986   -0.597614
| 10> Au      -1.342316   -0.774986   -0.597614
| 11> H        0.000000    0.000000    3.328141
| 12> *
| 13>
| 14> %maxcore 5000
| 15>
| 16> %pal
| 17> nprocs = 24
| 18> end
| 19>
| 20>
| 21>                          ****END OF INPUT****

CARTESIAN COORDINATES (ANGSTROEM)
---------------------------------
  Au     0.000000    0.000000    1.750714
  Au    -0.000000    1.549973   -0.597614
  Au     1.342316   -0.774986   -0.597614
  Au    -1.342316   -0.774986   -0.597614
  H      0.000000    0.000000    3.328141

 Total Charge           Charge          ....    2
 Multiplicity           Mult            ....    2
 Number of Electrons    NEL             ....   75
 Basis Dimension        Dim             ....  253

ORBITAL ENERGIES
----------------
                 SPIN UP ORBITALS
  NO   OCC          E(Eh)            E(eV)
   0   1.0000      -4.443425      -120.9117
   1   1.0000      -4.413811      -120.1059
   2   1.0000      -4.413472      -120.0967
   3   1.0000      -4.413470      -120.0966
   4   1.0000      -2.665826       -72.5408
   5   1.0000      -2.642305       -71.9008
   6   1.0000      -2.642304       -71.9007
   7   1.0000      -2.631754       -71.6137
   8   1.0000      -2.626691       -71.4759
   9   1.0000      -2.626687       -71.4758
  10   1.0000      -2.620163       -71.2983
  11   1.0000      -2.620152       -71.2980
  12   1.0000      -2.619823       -71.2890
  13   1.0000      -2.618774       -71.2605
  14   1.0000      -2.618773       -71.2604
  15   1.0000      -2.618071       -71.2413
  16   1.0000      -0.802441       -21.8355
  17   1.0000      -0.735983       -20.0271
  18   1.0000      -0.715667       -19.4743
  19   1.0000      -0.715664       -19.4742
  20   1.0000      -0.699824       -19.0432
  21   1.0000      -0.697294       -18.9743
  22   1.0000      -0.697292       -18.9743
  23   1.0000      -0.677406       -18.4331
  24   1.0000      -0.677400       -18.4330
  25   1.0000      -0.672588       -18.3020
  26   1.0000      -0.667681       -18.1685
  27   1.0000      -0.651172       -17.7193
  28   1.0000      -0.651170       -17.7192
  29   1.0000      -0.637878       -17.3576
  30   1.0000      -0.637876       -17.3575
  31   1.0000      -0.635067       -17.2810
  32   1.0000      -0.635062       -17.2809
  33   1.0000      -0.635005       -17.2794
  34   1.0000      -0.624052       -16.9813
  35   1.0000      -0.624048       -16.9812
  36   1.0000      -0.609938       -16.5973
  37   1.0000      -0.605454       -16.4752
  38   0.0000      -0.513688       -13.9782
  39   0.0000      -0.513688       -13.9782
  40   0.0000      -0.447702       -12.1826
  41   0.0000      -0.360564        -9.8115
  42   0.0000      -0.359987        -9.7957

                 SPIN DOWN ORBITALS
  NO   OCC          E(Eh)            E(eV)
   0   1.0000      -4.437920      -120.7619
   1   1.0000      -4.413295      -120.0919
   2   1.0000      -4.412955      -120.0826
   3   1.0000      -4.412953      -120.0826
   4   1.0000      -2.654122       -72.2223
   5   1.0000      -2.639154       -71.8150
   6   1.0000      -2.639154       -71.8150
   7   1.0000      -2.630910       -71.5907
   8   1.0000      -2.625921       -71.4549
   9   1.0000      -2.625917       -71.4548
  10   1.0000      -2.619920       -71.2916
  11   1.0000      -2.619908       -71.2913
  12   1.0000      -2.619009       -71.2668
  13   1.0000      -2.618010       -71.2397
  14   1.0000      -2.618009       -71.2396
  15   1.0000      -2.617918       -71.2372
  16   1.0000      -0.788847       -21.4656
  17   1.0000      -0.728000       -19.8099
  18   1.0000      -0.713765       -19.4225
  19   1.0000      -0.713764       -19.4225
  20   1.0000      -0.695188       -18.9170
  21   1.0000      -0.695186       -18.9170
  22   1.0000      -0.689832       -18.7713
  23   1.0000      -0.670937       -18.2571
  24   1.0000      -0.669908       -18.2291
  25   1.0000      -0.669904       -18.2290
  26   1.0000      -0.661105       -17.9896
  27   1.0000      -0.645374       -17.5615
  28   1.0000      -0.645370       -17.5614
  29   1.0000      -0.637264       -17.3408
  30   1.0000      -0.637262       -17.3408
  31   1.0000      -0.634159       -17.2563
  32   1.0000      -0.634155       -17.2562
  33   1.0000      -0.633912       -17.2496
  34   1.0000      -0.620200       -16.8765
  35   1.0000      -0.620196       -16.8764
  36   1.0000      -0.609975       -16.5983
  37   0.0000      -0.574977       -15.6459
  38   0.0000      -0.512296       -13.9403
  39   0.0000      -0.512296       -13.9403
  40   0.0000      -0.434243       -11.8164
  41   0.0000      -0.359514        -9.7829

MULLIKEN ATOMIC CHARGES AND SPIN POPULATIONS
--------------------------------------------
   0 Au:    0.254756    0.555049
   1 Au:    0.506245    0.049067
   2 Au:    0.506583    0.049060
   3 Au:    0.506575    0.049060
   4 H :    0.225842    0.297764
Sum of atomic charges         :    2.0000000

LOEWDIN ATOMIC CHARGES AND SPIN POPULATIONS
-------------------------------------------
   0 Au:    0.585973    0.505173
   1 Au:    0.489978    0.059977
   2 Au:    0.489977    0.059980
   3 Au:    0.489976    0.059980
   4 H :   -0.055905    0.314889

  Mayer bond orders larger than 0.100000
B(  0-Au,  1-Au) :   0.3622 B(  0-Au,  2-Au) :   0.3620 B(  0-Au,  3-Au) :   0.3620
B(  0-Au,  4-H ) :   0.7883 B(  1-Au,  2-Au) :   0.5417 B(  1-Au,  3-Au) :   0.5417
B(  2-Au,  3-Au) :   0.5416

Dispersion correction           -0.013204895
FINAL SINGLE POINT ENERGY      -542.761214773593

DIPOLE MOMENT
-------------
                                X             Y             Z
Electronic contribution:     -0.00000      -0.00002      -5.61919
Nuclear contribution   :      0.00000      -0.00000       5.68843
                        -----------------------------------------
Total Dipole Moment    :     -0.00000      -0.00003       0.06924
                        -----------------------------------------
Magnitude (a.u.)       :      0.06924
Magnitude (Debye)      :      0.17599

Rotational constants in cm-1:     0.011875     0.010977     0.010977
Rotational constants in MHz :   356.004762   329.094939   329.094872

                             ****ORCA TERMINATED NORMALLY****
TOTAL RUN TIME: 0 days 0 hours 0 minutes 8 seconds 222 msec
