                         Program Version 4.2.0 -  RELEASE  -
|  1> #
|  2> # Au04C2 TPSS-D3BJ/Def2-TZVPPD
|  3> #
|  4> ! tpss d3bj def2-tzvppd def2/j grid4 nofinalgrid
|  5>
|  6> *xyz 2 1
|  7> Au      -0.000000   -0.000044    1.659420
|  8> Au      -1.354966    0.782292   -0.553161
|  9> Au       1.354966    0.782292   -0.553161
| 10> Au       0.000000   -1.564540   -0.553099
| 11> *
| 12>
| 13> %maxcore 5000
| 14>
| 15> %pal
| 16> nprocs = 24
| 17> end
| 18>
| 19>
| 20>                          ****END OF INPUT****

CARTESIAN COORDINATES (ANGSTROEM)
---------------------------------
  Au    -0.000000   -0.000044    1.659420
  Au    -1.354966    0.782292   -0.553161
  Au     1.354966    0.782292   -0.553161
  Au     0.000000   -1.564540   -0.553099

 Total Charge           Charge          ....    2
 Multiplicity           Mult            ....    1
 Number of Electrons    NEL             ....   74
 Basis Dimension        Dim             ....  236

ORBITAL ENERGIES
----------------

  NO   OCC          E(Eh)            E(eV)
   0   2.0000      -4.411700      -120.0484
   1   2.0000      -4.411307      -120.0378
   2   2.0000      -4.411303      -120.0377
   3   2.0000      -4.411301      -120.0376
   4   2.0000      -2.630412       -71.5771
   5   2.0000      -2.624713       -71.4221
   6   2.0000      -2.624713       -71.4221
   7   2.0000      -2.624707       -71.4219
   8   2.0000      -2.618509       -71.2533
   9   2.0000      -2.618502       -71.2531
  10   2.0000      -2.617691       -71.2310
  11   2.0000      -2.617684       -71.2308
  12   2.0000      -2.617680       -71.2307
  13   2.0000      -2.616108       -71.1879
  14   2.0000      -2.616107       -71.1879
  15   2.0000      -2.616099       -71.1877
  16   2.0000      -0.769367       -20.9356
  17   2.0000      -0.711090       -19.3497
  18   2.0000      -0.711084       -19.3496
  19   2.0000      -0.711082       -19.3495
  20   2.0000      -0.691310       -18.8115
  21   2.0000      -0.691310       -18.8115
  22   2.0000      -0.669282       -18.2121
  23   2.0000      -0.669277       -18.2120
  24   2.0000      -0.669274       -18.2119
  25   2.0000      -0.663198       -18.0465
  26   2.0000      -0.636880       -17.3304
  27   2.0000      -0.636878       -17.3303
  28   2.0000      -0.636877       -17.3303
  29   2.0000      -0.634472       -17.2649
  30   2.0000      -0.634467       -17.2647
  31   2.0000      -0.634466       -17.2647
  32   2.0000      -0.633416       -17.2361
  33   2.0000      -0.633408       -17.2359
  34   2.0000      -0.609708       -16.5910
  35   2.0000      -0.609707       -16.5910
  36   2.0000      -0.609702       -16.5908
  37   0.0000      -0.511573       -13.9206
  38   0.0000      -0.511570       -13.9205
  39   0.0000      -0.511567       -13.9204
  40   0.0000      -0.363769        -9.8986
  41   0.0000      -0.354702        -9.6519

MULLIKEN ATOMIC CHARGES
-----------------------
   0 Au:    0.499920
   1 Au:    0.500062
   2 Au:    0.500056
   3 Au:    0.499962
Sum of atomic charges:    2.0000000

LOEWDIN ATOMIC CHARGES
----------------------
   0 Au:    0.499982
   1 Au:    0.500006
   2 Au:    0.500006
   3 Au:    0.500006

  Mayer bond orders larger than 0.100000
B(  0-Au,  1-Au) :   0.4981 B(  0-Au,  2-Au) :   0.4981 B(  0-Au,  3-Au) :   0.4982
B(  1-Au,  2-Au) :   0.4980 B(  1-Au,  3-Au) :   0.4981 B(  2-Au,  3-Au) :   0.4981

Dispersion correction           -0.012177165
FINAL SINGLE POINT ENERGY      -542.200580741069

DIPOLE MOMENT
-------------
                                X             Y             Z
Electronic contribution:      0.00000       0.00004      -0.00000
Nuclear contribution   :      0.00000       0.00000       0.00000
                        -----------------------------------------
Total Dipole Moment    :      0.00000       0.00004      -0.00000
                        -----------------------------------------
Magnitude (a.u.)       :      0.00004
Magnitude (Debye)      :      0.00009

Rotational constants in cm-1:     0.011655     0.011655     0.011654
Rotational constants in MHz :   349.408482   349.408217   349.388110

                             ****ORCA TERMINATED NORMALLY****
TOTAL RUN TIME: 0 days 0 hours 0 minutes 5 seconds 765 msec
