                         Program Version 4.2.0 -  RELEASE  -
|  1> #
|  2> # Au04C2_H_F TPSS-D3BJ/Def2-TZVPPD
|  3> #
|  4> ! tpss d3bj def2-tzvppd def2/j grid4 nofinalgrid
|  5>
|  6> *xyz 2 2
|  7> Au       0.000000    1.567068   -0.568281
|  8> Au       1.357120   -0.783534   -0.568281
|  9> Au      -1.357120   -0.783534   -0.568281
| 10> Au       0.000000    0.000000    1.725922
| 11> H        0.000000    0.000000   -1.665144
| 12> *
| 13>
| 14> %maxcore 5000
| 15>
| 16> %pal
| 17> nprocs = 24
| 18> end
| 19>
| 20>
| 21>                          ****END OF INPUT****

CARTESIAN COORDINATES (ANGSTROEM)
---------------------------------
  Au     0.000000    1.567068   -0.568281
  Au     1.357120   -0.783534   -0.568281
  Au    -1.357120   -0.783534   -0.568281
  Au     0.000000    0.000000    1.725922
  H      0.000000    0.000000   -1.665144

 Total Charge           Charge          ....    2
 Multiplicity           Mult            ....    2
 Number of Electrons    NEL             ....   75
 Basis Dimension        Dim             ....  253

ORBITAL ENERGIES
----------------
                 SPIN UP ORBITALS
  NO   OCC          E(Eh)            E(eV)
   0   1.0000      -4.432090      -120.6033
   1   1.0000      -4.431797      -120.5953
   2   1.0000      -4.431796      -120.5953
   3   1.0000      -4.398665      -119.6938
   4   1.0000      -2.650758       -72.1308
   5   1.0000      -2.645827       -71.9966
   6   1.0000      -2.645826       -71.9966
   7   1.0000      -2.638933       -71.8090
   8   1.0000      -2.638160       -71.7880
   9   1.0000      -2.638157       -71.7879
  10   1.0000      -2.636866       -71.7528
  11   1.0000      -2.636860       -71.7526
  12   1.0000      -2.635097       -71.7046
  13   1.0000      -2.611663       -71.0670
  14   1.0000      -2.603650       -70.8489
  15   1.0000      -2.603648       -70.8489
  16   1.0000      -0.844250       -22.9732
  17   1.0000      -0.760915       -20.7055
  18   1.0000      -0.720433       -19.6040
  19   1.0000      -0.720431       -19.6039
  20   1.0000      -0.700057       -19.0495
  21   1.0000      -0.700055       -19.0495
  22   1.0000      -0.696686       -18.9578
  23   1.0000      -0.682387       -18.5687
  24   1.0000      -0.678519       -18.4634
  25   1.0000      -0.678518       -18.4634
  26   1.0000      -0.658722       -17.9247
  27   1.0000      -0.658712       -17.9245
  28   1.0000      -0.654193       -17.8015
  29   1.0000      -0.654192       -17.8015
  30   1.0000      -0.651544       -17.7294
  31   1.0000      -0.632062       -17.1993
  32   1.0000      -0.629409       -17.1271
  33   1.0000      -0.629401       -17.1269
  34   1.0000      -0.629057       -17.1175
  35   1.0000      -0.617617       -16.8062
  36   1.0000      -0.617614       -16.8061
  37   1.0000      -0.549840       -14.9619
  38   0.0000      -0.525724       -14.3057
  39   0.0000      -0.525723       -14.3056
  40   0.0000      -0.453431       -12.3385
  41   0.0000      -0.372267       -10.1299
  42   0.0000      -0.361780        -9.8445

                 SPIN DOWN ORBITALS
  NO   OCC          E(Eh)            E(eV)
   0   1.0000      -4.429946      -120.5450
   1   1.0000      -4.429653      -120.5370
   2   1.0000      -4.429651      -120.5369
   3   1.0000      -4.397261      -119.6556
   4   1.0000      -2.647409       -72.0397
   5   1.0000      -2.642536       -71.9070
   6   1.0000      -2.642535       -71.9070
   7   1.0000      -2.636273       -71.7366
   8   1.0000      -2.636270       -71.7365
   9   1.0000      -2.635616       -71.7188
  10   1.0000      -2.634772       -71.6958
  11   1.0000      -2.634772       -71.6958
  12   1.0000      -2.634536       -71.6894
  13   1.0000      -2.610055       -71.0232
  14   1.0000      -2.602147       -70.8080
  15   1.0000      -2.602145       -70.8080
  16   1.0000      -0.831360       -22.6225
  17   1.0000      -0.754521       -20.5316
  18   1.0000      -0.719304       -19.5732
  19   1.0000      -0.719302       -19.5732
  20   1.0000      -0.695269       -18.9192
  21   1.0000      -0.695267       -18.9192
  22   1.0000      -0.692099       -18.8330
  23   1.0000      -0.680915       -18.5286
  24   1.0000      -0.675492       -18.3811
  25   1.0000      -0.675492       -18.3811
  26   1.0000      -0.654396       -17.8070
  27   1.0000      -0.654395       -17.8070
  28   1.0000      -0.652473       -17.7547
  29   1.0000      -0.652466       -17.7545
  30   1.0000      -0.649588       -17.6762
  31   1.0000      -0.627677       -17.0800
  32   1.0000      -0.624923       -17.0050
  33   1.0000      -0.624915       -17.0048
  34   1.0000      -0.624735       -16.9999
  35   1.0000      -0.612168       -16.6579
  36   1.0000      -0.612163       -16.6578
  37   0.0000      -0.532603       -14.4929
  38   0.0000      -0.521839       -14.2000
  39   0.0000      -0.521838       -14.1999
  40   0.0000      -0.438103       -11.9214
  41   0.0000      -0.363887        -9.9019

MULLIKEN ATOMIC CHARGES AND SPIN POPULATIONS
--------------------------------------------
   0 Au:    0.458063    0.103320
   1 Au:    0.458149    0.103324
   2 Au:    0.458144    0.103325
   3 Au:    0.343468    0.481623
   4 H :    0.282177    0.208409
Sum of atomic charges         :    2.0000000

LOEWDIN ATOMIC CHARGES AND SPIN POPULATIONS
-------------------------------------------
   0 Au:    0.563693    0.186190
   1 Au:    0.563687    0.186192
   2 Au:    0.563687    0.186192
   3 Au:    0.458201    0.312986
   4 H :   -0.149269    0.128441

  Mayer bond orders larger than 0.100000
B(  0-Au,  1-Au) :   0.5208 B(  0-Au,  2-Au) :   0.5208 B(  0-Au,  3-Au) :   0.4889
B(  0-Au,  4-H ) :   0.2325 B(  1-Au,  2-Au) :   0.5207 B(  1-Au,  3-Au) :   0.4888
B(  1-Au,  4-H ) :   0.2326 B(  2-Au,  3-Au) :   0.4888 B(  2-Au,  4-H ) :   0.2326

Dispersion correction           -0.014122044
FINAL SINGLE POINT ENERGY      -542.746321519405

DIPOLE MOMENT
-------------
                                X             Y             Z
Electronic contribution:      0.00000      -0.00003       2.32429
Nuclear contribution   :      0.00000       0.00000      -2.84605
                        -----------------------------------------
Total Dipole Moment    :      0.00000      -0.00003      -0.52176
                        -----------------------------------------
Magnitude (a.u.)       :      0.52176
Magnitude (Debye)      :      1.32622

Rotational constants in cm-1:     0.011617     0.011195     0.011195
Rotational constants in MHz :   348.279987   335.605170   335.605004

                             ****ORCA TERMINATED NORMALLY****
TOTAL RUN TIME: 0 days 0 hours 0 minutes 8 seconds 22 msec
