                         Program Version 4.2.0 -  RELEASE  -
|  1> #
|  2> # Au04N0 TPSS-D3BJ/Def2-TZVPPD
|  3> #
|  4> ! tpss d3bj def2-tzvppd def2/j grid4 nofinalgrid
|  5>
|  6> *xyz 0 1
|  7> Au      -0.788661   -0.016684    2.209526
|  8> Au      -1.223332   -0.011467   -0.436740
|  9> Au       0.788385    0.016579   -2.209564
| 10> Au       1.223608    0.011572    0.436778
| 11> *
| 12>
| 13> %maxcore 5000
| 14>
| 15> %pal
| 16> nprocs = 24
| 17> end
| 18>
| 19>
| 20>                          ****END OF INPUT****

CARTESIAN COORDINATES (ANGSTROEM)
---------------------------------
  Au    -0.788661   -0.016684    2.209526
  Au    -1.223332   -0.011467   -0.436740
  Au     0.788385    0.016579   -2.209564
  Au     1.223608    0.011572    0.436778

 Total Charge           Charge          ....    0
 Multiplicity           Mult            ....    1
 Number of Electrons    NEL             ....   76
 Basis Dimension        Dim             ....  236

ORBITAL ENERGIES
----------------

  NO   OCC          E(Eh)            E(eV)
   0   2.0000      -4.034324      -109.7795
   1   2.0000      -4.033957      -109.7696
   2   2.0000      -4.017234      -109.3145
   3   2.0000      -4.017225      -109.3143
   4   2.0000      -2.250048       -61.2269
   5   2.0000      -2.244940       -61.0879
   6   2.0000      -2.243677       -61.0536
   7   2.0000      -2.242790       -61.0294
   8   2.0000      -2.237927       -60.8971
   9   2.0000      -2.237257       -60.8789
  10   2.0000      -2.229244       -60.6608
  11   2.0000      -2.228612       -60.6436
  12   2.0000      -2.225848       -60.5684
  13   2.0000      -2.225587       -60.5613
  14   2.0000      -2.218484       -60.3680
  15   2.0000      -2.218470       -60.3677
  16   2.0000      -0.366884        -9.9834
  17   2.0000      -0.353121        -9.6089
  18   2.0000      -0.327405        -8.9091
  19   2.0000      -0.324970        -8.8429
  20   2.0000      -0.314515        -8.5584
  21   2.0000      -0.303066        -8.2469
  22   2.0000      -0.292563        -7.9611
  23   2.0000      -0.285675        -7.7736
  24   2.0000      -0.271681        -7.3928
  25   2.0000      -0.259273        -7.0552
  26   2.0000      -0.258987        -7.0474
  27   2.0000      -0.258230        -7.0268
  28   2.0000      -0.257138        -6.9971
  29   2.0000      -0.252995        -6.8843
  30   2.0000      -0.252130        -6.8608
  31   2.0000      -0.242459        -6.5976
  32   2.0000      -0.242167        -6.5897
  33   2.0000      -0.241303        -6.5662
  34   2.0000      -0.239676        -6.5219
  35   2.0000      -0.237674        -6.4674
  36   2.0000      -0.220862        -6.0099
  37   2.0000      -0.201218        -5.4754
  38   0.0000      -0.160932        -4.3792
  39   0.0000      -0.120522        -3.2796
  40   0.0000      -0.064700        -1.7606
  41   0.0000      -0.040488        -1.1017
  42   0.0000      -0.036238        -0.9861

MULLIKEN ATOMIC CHARGES
-----------------------
   0 Au:   -0.138510
   1 Au:    0.138484
   2 Au:   -0.138491
   3 Au:    0.138516
Sum of atomic charges:   -0.0000000

LOEWDIN ATOMIC CHARGES
----------------------
   0 Au:    0.078635
   1 Au:   -0.078721
   2 Au:    0.078653
   3 Au:   -0.078567

  Mayer bond orders larger than 0.100000
B(  0-Au,  1-Au) :   0.5937 B(  0-Au,  2-Au) :   0.2725 B(  0-Au,  3-Au) :   0.5938
B(  1-Au,  2-Au) :   0.5940 B(  1-Au,  3-Au) :   0.4414 B(  2-Au,  3-Au) :   0.5937

Dispersion correction           -0.011239094
FINAL SINGLE POINT ENERGY      -542.927358864507

DIPOLE MOMENT
-------------
                                X             Y             Z
Electronic contribution:      0.00033       0.00001      -0.00000
Nuclear contribution   :     -0.00000      -0.00000       0.00000
                        -----------------------------------------
Total Dipole Moment    :      0.00033       0.00001      -0.00000
                        -----------------------------------------
Magnitude (a.u.)       :      0.00033
Magnitude (Debye)      :      0.00083

Rotational constants in cm-1:     0.025355     0.007775     0.005950
Rotational constants in MHz :   760.119680   233.080651   178.382130

                             ****ORCA TERMINATED NORMALLY****
TOTAL RUN TIME: 0 days 0 hours 0 minutes 6 seconds 128 msec
