                         Program Version 4.2.0 -  RELEASE  -
|  1> #
|  2> # Cu01N0_F TPSS-D3BJ/Def2-TZVPPD
|  3> #
|  4> ! tpss d3bj def2-tzvppd def2/j grid4 nofinalgrid
|  5>
|  6> *xyz 0 1
|  7> Cu       0.000000    0.000000    0.412716
|  8> F        0.000000    0.000000   -1.329863
|  9> *
| 10>
| 11> %maxcore 5000
| 12>
| 13> %pal
| 14> nprocs = 24
| 15> end
| 16>
| 17>
| 18>                          ****END OF INPUT****

CARTESIAN COORDINATES (ANGSTROEM)
---------------------------------
  Cu     0.000000    0.000000    0.412716
  F      0.000000    0.000000   -1.329863

 Total Charge           Charge          ....    0
 Multiplicity           Mult            ....    1
 Number of Electrons    NEL             ....   38
 Basis Dimension        Dim             ....  107

ORBITAL ENERGIES
----------------

  NO   OCC          E(Eh)            E(eV)
   0   2.0000    -322.128195     -8765.5538
   1   2.0000     -38.419435     -1045.4460
   2   2.0000     -33.638305      -915.3448
   3   2.0000     -33.638278      -915.3441
   4   2.0000     -33.638278      -915.3441
   5   2.0000     -24.327539      -661.9860
   6   2.0000      -4.181432      -113.7826
   7   2.0000      -2.698303       -73.4246
   8   2.0000      -2.690345       -73.2080
   9   2.0000      -2.690345       -73.2080
  10   2.0000      -0.998219       -27.1629
  11   2.0000      -0.349497        -9.5103
  12   2.0000      -0.304540        -8.2869
  13   2.0000      -0.304540        -8.2869
  14   2.0000      -0.236463        -6.4345
  15   2.0000      -0.236462        -6.4345
  16   2.0000      -0.219776        -5.9804
  17   2.0000      -0.219776        -5.9804
  18   2.0000      -0.216770        -5.8986
  19   0.0000      -0.140575        -3.8253
  20   0.0000      -0.016136        -0.4391
  21   0.0000      -0.016136        -0.4391
  22   0.0000       0.024347         0.6625
  23   0.0000       0.059676         1.6239

MULLIKEN ATOMIC CHARGES
-----------------------
   0 Cu:    0.638899
   1 F :   -0.638899
Sum of atomic charges:   -0.0000000

LOEWDIN ATOMIC CHARGES
----------------------
   0 Cu:    0.535408
   1 F :   -0.535408

  Mayer bond orders larger than 0.100000
B(  0-Cu,  1-F ) :   0.7504

Dispersion correction           -0.000482845
FINAL SINGLE POINT ENERGY     -1740.450241283499

DIPOLE MOMENT
-------------
                                X             Y             Z
Electronic contribution:     -0.00000       0.00000       2.67053
Nuclear contribution   :      0.00000       0.00000      -0.83805
                        -----------------------------------------
Total Dipole Moment    :     -0.00000       0.00000       1.83248
                        -----------------------------------------
Magnitude (a.u.)       :      1.83248
Magnitude (Debye)      :      4.65780

Rotational constants in cm-1:     0.000000     0.379573     0.379573
Rotational constants in MHz :     0.000000 11379.305818 11379.305818

                             ****ORCA TERMINATED NORMALLY****
TOTAL RUN TIME: 0 days 0 hours 0 minutes 2 seconds 723 msec
