                         Program Version 4.2.0 -  RELEASE  -
|  1> #
|  2> # Cu01N0_H TPSS-D3BJ/Def2-TZVPPD
|  3> #
|  4> ! tpss d3bj def2-tzvppd def2/j grid4 nofinalgrid
|  5>
|  6> *xyz 0 1
|  7> Cu       0.000000    0.000000    0.048513
|  8> H        0.000000    0.000000   -1.406870
|  9> *
| 10>
| 11> %maxcore 5000
| 12>
| 13> %pal
| 14> nprocs = 24
| 15> end
| 16>
| 17>
| 18>                          ****END OF INPUT****

CARTESIAN COORDINATES (ANGSTROEM)
---------------------------------
  Cu     0.000000    0.000000    0.048513
  H      0.000000    0.000000   -1.406870

 Total Charge           Charge          ....    0
 Multiplicity           Mult            ....    1
 Number of Electrons    NEL             ....   30
 Basis Dimension        Dim             ....   84

ORBITAL ENERGIES
----------------

  NO   OCC          E(Eh)            E(eV)
   0   2.0000    -322.107793     -8764.9986
   1   2.0000     -38.401720     -1044.9639
   2   2.0000     -33.621064      -914.8757
   3   2.0000     -33.620242      -914.8533
   4   2.0000     -33.620242      -914.8533
   5   2.0000      -4.158224      -113.1510
   6   2.0000      -2.676374       -72.8278
   7   2.0000      -2.666063       -72.5473
   8   2.0000      -2.666063       -72.5473
   9   2.0000      -0.299666        -8.1543
  10   2.0000      -0.220438        -5.9984
  11   2.0000      -0.220438        -5.9984
  12   2.0000      -0.211501        -5.7552
  13   2.0000      -0.211501        -5.7552
  14   2.0000      -0.197814        -5.3828
  15   0.0000      -0.098178        -2.6716
  16   0.0000      -0.021150        -0.5755
  17   0.0000      -0.021149        -0.5755
  18   0.0000       0.054024         1.4701
  19   0.0000       0.061090         1.6624

MULLIKEN ATOMIC CHARGES
-----------------------
   0 Cu:   -0.412087
   1 H :    0.412087
Sum of atomic charges:   -0.0000000

LOEWDIN ATOMIC CHARGES
----------------------
   0 Cu:    0.264894
   1 H :   -0.264894

  Mayer bond orders larger than 0.100000
B(  0-Cu,  1-H ) :   0.7470

Dispersion correction           -0.000423073
FINAL SINGLE POINT ENERGY     -1641.126546437696

DIPOLE MOMENT
-------------
                                X             Y             Z
Electronic contribution:      0.00000      -0.00000       2.45985
Nuclear contribution   :      0.00000       0.00000      -1.46200
                        -----------------------------------------
Total Dipole Moment    :      0.00000      -0.00000       0.99785
                        -----------------------------------------
Magnitude (a.u.)       :      0.99785
Magnitude (Debye)      :      2.53634

Rotational constants in cm-1:     0.000000     8.020774     8.020774
Rotational constants in MHz :     0.000000 240456.758928 240456.758928

                             ****ORCA TERMINATED NORMALLY****
TOTAL RUN TIME: 0 days 0 hours 0 minutes 2 seconds 842 msec
