                         Program Version 4.2.0 -  RELEASE  -
|  1> #
|  2> # Cu02N0 TPSS-D3BJ/Def2-TZVPPD
|  3> #
|  4> ! tpss d3bj def2-tzvppd def2/j grid4 nofinalgrid
|  5>
|  6> *xyz 0 1
|  7> Cu       0.000000    0.000000    1.107490
|  8> Cu       0.000000    0.000000   -1.107490
|  9> *
| 10>
| 11> %maxcore 5000
| 12>
| 13> %pal
| 14> nprocs = 24
| 15> end
| 16>
| 17>
| 18>                          ****END OF INPUT****

CARTESIAN COORDINATES (ANGSTROEM)
---------------------------------
  Cu     0.000000    0.000000    1.107490
  Cu     0.000000    0.000000   -1.107490

 Total Charge           Charge          ....    0
 Multiplicity           Mult            ....    1
 Number of Electrons    NEL             ....   58
 Basis Dimension        Dim             ....  134

ORBITAL ENERGIES
----------------

  NO   OCC          E(Eh)            E(eV)
   0   2.0000    -322.078358     -8764.1977
   1   2.0000    -322.078352     -8764.1975
   2   2.0000     -38.368871     -1044.0701
   3   2.0000     -38.368825     -1044.0688
   4   2.0000     -33.587810      -913.9708
   5   2.0000     -33.587810      -913.9708
   6   2.0000     -33.587805      -913.9706
   7   2.0000     -33.587805      -913.9706
   8   2.0000     -33.587788      -913.9702
   9   2.0000     -33.587788      -913.9702
  10   2.0000      -4.127623      -112.3183
  11   2.0000      -4.126975      -112.3007
  12   2.0000      -2.644966       -71.9732
  13   2.0000      -2.639734       -71.8308
  14   2.0000      -2.637605       -71.7729
  15   2.0000      -2.637605       -71.7729
  16   2.0000      -2.637088       -71.7588
  17   2.0000      -2.637088       -71.7588
  18   2.0000      -0.233527        -6.3546
  19   2.0000      -0.209726        -5.7069
  20   2.0000      -0.209726        -5.7069
  21   2.0000      -0.190100        -5.1729
  22   2.0000      -0.190094        -5.1727
  23   2.0000      -0.185102        -5.0369
  24   2.0000      -0.181521        -4.9394
  25   2.0000      -0.181514        -4.9393
  26   2.0000      -0.174464        -4.7474
  27   2.0000      -0.174464        -4.7474
  28   2.0000      -0.172581        -4.6962
  29   0.0000      -0.102621        -2.7925
  30   0.0000      -0.036416        -0.9909
  31   0.0000      -0.036416        -0.9909
  32   0.0000      -0.013613        -0.3704
  33   0.0000       0.031922         0.8686

MULLIKEN ATOMIC CHARGES
-----------------------
   0 Cu:    0.000013
   1 Cu:   -0.000013
Sum of atomic charges:   -0.0000000

LOEWDIN ATOMIC CHARGES
----------------------
   0 Cu:    0.000000
   1 Cu:   -0.000000

  Mayer bond orders larger than 0.100000
B(  0-Cu,  1-Cu) :   1.1135

Dispersion correction           -0.001401256
FINAL SINGLE POINT ENERGY     -3281.114896963769

DIPOLE MOMENT
-------------
                                X             Y             Z
Electronic contribution:     -0.00000      -0.00000       0.00000
Nuclear contribution   :      0.00000       0.00000       0.00000
                        -----------------------------------------
Total Dipole Moment    :     -0.00000      -0.00000       0.00000
                        -----------------------------------------
Magnitude (a.u.)       :      0.00000
Magnitude (Debye)      :      0.00000

Rotational constants in cm-1:     0.000000     0.108136     0.108136
Rotational constants in MHz :     0.000000  3241.846344  3241.846344

                             ****ORCA TERMINATED NORMALLY****
TOTAL RUN TIME: 0 days 0 hours 0 minutes 3 seconds 7 msec
