                         Program Version 4.2.0 -  RELEASE  -
|  1> #
|  2> # Cu03N0_LIN TPSS-D3BJ/Def2-TZVPPD
|  3> #
|  4> ! tpss d3bj def2-tzvppd def2/j grid4 nofinalgrid
|  5>
|  6> *xyz 0 2
|  7> Cu       0.000000    0.000000    0.000000
|  8> Cu       0.000000    0.000000    2.291099
|  9> Cu       0.000000    0.000000   -2.291099
| 10> *
| 11>
| 12> %maxcore 5000
| 13>
| 14> %pal
| 15> nprocs = 24
| 16> end
| 17>
| 18>
| 19>                          ****END OF INPUT****

CARTESIAN COORDINATES (ANGSTROEM)
---------------------------------
  Cu     0.000000    0.000000    0.000000
  Cu     0.000000    0.000000    2.291099
  Cu     0.000000    0.000000   -2.291099

 Total Charge           Charge          ....    0
 Multiplicity           Mult            ....    2
 Number of Electrons    NEL             ....   87
 Basis Dimension        Dim             ....  201

ORBITAL ENERGIES
----------------
                 SPIN UP ORBITALS
  NO   OCC          E(Eh)            E(eV)
   0   1.0000    -322.092302     -8764.5771
   1   1.0000    -322.092299     -8764.5770
   2   1.0000    -322.078122     -8764.1913
   3   1.0000     -38.381627     -1044.4172
   4   1.0000     -38.381603     -1044.4165
   5   1.0000     -38.371705     -1044.1472
   6   1.0000     -33.600998      -914.3296
   7   1.0000     -33.600995      -914.3296
   8   1.0000     -33.600547      -914.3174
   9   1.0000     -33.600547      -914.3174
  10   1.0000     -33.600544      -914.3173
  11   1.0000     -33.600544      -914.3173
  12   1.0000     -33.590832      -914.0530
  13   1.0000     -33.590365      -914.0403
  14   1.0000     -33.590365      -914.0403
  15   1.0000      -4.140086      -112.6575
  16   1.0000      -4.140071      -112.6571
  17   1.0000      -4.128315      -112.3372
  18   1.0000      -2.657089       -72.3031
  19   1.0000      -2.656573       -72.2890
  20   1.0000      -2.649649       -72.1006
  21   1.0000      -2.649649       -72.1006
  22   1.0000      -2.649645       -72.1005
  23   1.0000      -2.649645       -72.1005
  24   1.0000      -2.643170       -71.9243
  25   1.0000      -2.637609       -71.7730
  26   1.0000      -2.637609       -71.7730
  27   1.0000      -0.259704        -7.0669
  28   1.0000      -0.221821        -6.0361
  29   1.0000      -0.221821        -6.0361
  30   1.0000      -0.211845        -5.7646
  31   1.0000      -0.207505        -5.6465
  32   1.0000      -0.207505        -5.6465
  33   1.0000      -0.203315        -5.5325
  34   1.0000      -0.202008        -5.4969
  35   1.0000      -0.202000        -5.4967
  36   1.0000      -0.200446        -5.4544
  37   1.0000      -0.200438        -5.4542
  38   1.0000      -0.182733        -4.9724
  39   1.0000      -0.182722        -4.9721
  40   1.0000      -0.180186        -4.9031
  41   1.0000      -0.176620        -4.8061
  42   1.0000      -0.176620        -4.8061
  43   1.0000      -0.174032        -4.7356
  44   0.0000      -0.088556        -2.4097
  45   0.0000      -0.054311        -1.4779
  46   0.0000      -0.054311        -1.4779
  47   0.0000      -0.026656        -0.7254
  48   0.0000      -0.013920        -0.3788

                 SPIN DOWN ORBITALS
  NO   OCC          E(Eh)            E(eV)
   0   1.0000    -322.091776     -8764.5628
   1   1.0000    -322.091772     -8764.5627
   2   1.0000    -322.078072     -8764.1899
   3   1.0000     -38.382050     -1044.4287
   4   1.0000     -38.382026     -1044.4280
   5   1.0000     -38.372055     -1044.1567
   6   1.0000     -33.601438      -914.3416
   7   1.0000     -33.601435      -914.3415
   8   1.0000     -33.600706      -914.3217
   9   1.0000     -33.600706      -914.3217
  10   1.0000     -33.600703      -914.3216
  11   1.0000     -33.600703      -914.3216
  12   1.0000     -33.591055      -914.0591
  13   1.0000     -33.590595      -914.0465
  14   1.0000     -33.590595      -914.0465
  15   1.0000      -4.140563      -112.6705
  16   1.0000      -4.140551      -112.6701
  17   1.0000      -4.129008      -112.3560
  18   1.0000      -2.655496       -72.2597
  19   1.0000      -2.654880       -72.2429
  20   1.0000      -2.650803       -72.1320
  21   1.0000      -2.650803       -72.1320
  22   1.0000      -2.650798       -72.1319
  23   1.0000      -2.650798       -72.1319
  24   1.0000      -2.643766       -71.9405
  25   1.0000      -2.638283       -71.7913
  26   1.0000      -2.638283       -71.7913
  27   1.0000      -0.253126        -6.8879
  28   1.0000      -0.219319        -5.9680
  29   1.0000      -0.219319        -5.9680
  30   1.0000      -0.207864        -5.6563
  31   1.0000      -0.204291        -5.5590
  32   1.0000      -0.204291        -5.5590
  33   1.0000      -0.198333        -5.3969
  34   1.0000      -0.198325        -5.3967
  35   1.0000      -0.196485        -5.3466
  36   1.0000      -0.196477        -5.3464
  37   1.0000      -0.190611        -5.1868
  38   1.0000      -0.183138        -4.9834
  39   1.0000      -0.183126        -4.9831
  40   1.0000      -0.175936        -4.7875
  41   1.0000      -0.175936        -4.7875
  42   1.0000      -0.173074        -4.7096
  43   0.0000      -0.156245        -4.2516
  44   0.0000      -0.074004        -2.0137
  45   0.0000      -0.042580        -1.1587
  46   0.0000      -0.042580        -1.1587
  47   0.0000      -0.013367        -0.3637

MULLIKEN ATOMIC CHARGES AND SPIN POPULATIONS
--------------------------------------------
   0 Cu:   -0.336488   -0.126239
   1 Cu:    0.168246    0.563128
   2 Cu:    0.168243    0.563111
Sum of atomic charges         :   -0.0000000

LOEWDIN ATOMIC CHARGES AND SPIN POPULATIONS
-------------------------------------------
   0 Cu:   -0.253856    0.349912
   1 Cu:    0.126927    0.325044
   2 Cu:    0.126929    0.325044

  Mayer bond orders larger than 0.100000
B(  0-Cu,  1-Cu) :   0.4294 B(  0-Cu,  2-Cu) :   0.4294 B(  1-Cu,  2-Cu) :   0.2921

Dispersion correction           -0.003463316
FINAL SINGLE POINT ENERGY     -4921.675032979625

DIPOLE MOMENT
-------------
                                X             Y             Z
Electronic contribution:      0.00000       0.00000      -0.00001
Nuclear contribution   :      0.00000       0.00000       0.00000
                        -----------------------------------------
Total Dipole Moment    :      0.00000       0.00000      -0.00001
                        -----------------------------------------
Magnitude (a.u.)       :      0.00001
Magnitude (Debye)      :      0.00002

Rotational constants in cm-1:     0.000000     0.025268     0.025268
Rotational constants in MHz :     0.000000   757.502973   757.502973

                             ****ORCA TERMINATED NORMALLY****
TOTAL RUN TIME: 0 days 0 hours 0 minutes 4 seconds 370 msec
