                         Program Version 4.2.0 -  RELEASE  -
|  1> #
|  2> # Cu03C1_D3H TPSS-D3BJ/Def2-TZVPPD
|  3> #
|  4> ! tpss d3bj def2-tzvppd def2/j grid4 nofinalgrid
|  5>
|  6> *xyz 1 1
|  7> Cu       0.000000    1.349261   -0.000000
|  8> Cu       1.168494   -0.674630    0.000000
|  9> Cu      -1.168494   -0.674630   -0.000000
| 10> *
| 11>
| 12> %maxcore 5000
| 13>
| 14> %pal
| 15> nprocs = 24
| 16> end
| 17>
| 18>
| 19>                          ****END OF INPUT****

CARTESIAN COORDINATES (ANGSTROEM)
---------------------------------
  Cu     0.000000    1.349261   -0.000000
  Cu     1.168494   -0.674630    0.000000
  Cu    -1.168494   -0.674630   -0.000000

 Total Charge           Charge          ....    1
 Multiplicity           Mult            ....    1
 Number of Electrons    NEL             ....   86
 Basis Dimension        Dim             ....  201

ORBITAL ENERGIES
----------------

  NO   OCC          E(Eh)            E(eV)
   0   2.0000    -322.302823     -8770.3057
   1   2.0000    -322.302818     -8770.3056
   2   2.0000    -322.302803     -8770.3051
   3   2.0000     -38.592138     -1050.1455
   4   2.0000     -38.592129     -1050.1452
   5   2.0000     -38.592080     -1050.1439
   6   2.0000     -33.811427      -920.0557
   7   2.0000     -33.811417      -920.0554
   8   2.0000     -33.811403      -920.0551
   9   2.0000     -33.811109      -920.0470
  10   2.0000     -33.811106      -920.0470
  11   2.0000     -33.811093      -920.0466
  12   2.0000     -33.810908      -920.0416
  13   2.0000     -33.810904      -920.0415
  14   2.0000     -33.810890      -920.0411
  15   2.0000      -4.351762      -118.4175
  16   2.0000      -4.351273      -118.4042
  17   2.0000      -4.351272      -118.4041
  18   2.0000      -2.868299       -78.0504
  19   2.0000      -2.865778       -77.9818
  20   2.0000      -2.865777       -77.9818
  21   2.0000      -2.863742       -77.9264
  22   2.0000      -2.863738       -77.9263
  23   2.0000      -2.863290       -77.9141
  24   2.0000      -2.859544       -77.8122
  25   2.0000      -2.859121       -77.8006
  26   2.0000      -2.859120       -77.8006
  27   2.0000      -0.476327       -12.9615
  28   2.0000      -0.440250       -11.9798
  29   2.0000      -0.440238       -11.9795
  30   2.0000      -0.436430       -11.8759
  31   2.0000      -0.429473       -11.6865
  32   2.0000      -0.418448       -11.3866
  33   2.0000      -0.418425       -11.3859
  34   2.0000      -0.408202       -11.1077
  35   2.0000      -0.403128       -10.9697
  36   2.0000      -0.403120       -10.9694
  37   2.0000      -0.398840       -10.8530
  38   2.0000      -0.398810       -10.8522
  39   2.0000      -0.397753       -10.8234
  40   2.0000      -0.397131       -10.8065
  41   2.0000      -0.397073       -10.8049
  42   2.0000      -0.387779       -10.5520
  43   0.0000      -0.298347        -8.1184
  44   0.0000      -0.298342        -8.1183
  45   0.0000      -0.231511        -6.2997
  46   0.0000      -0.195633        -5.3234
  47   0.0000      -0.177379        -4.8267

MULLIKEN ATOMIC CHARGES
-----------------------
   0 Cu:    0.333394
   1 Cu:    0.333309
   2 Cu:    0.333297
Sum of atomic charges:    1.0000000

LOEWDIN ATOMIC CHARGES
----------------------
   0 Cu:    0.333385
   1 Cu:    0.333308
   2 Cu:    0.333307

  Mayer bond orders larger than 0.100000
B(  0-Cu,  1-Cu) :   0.6017 B(  0-Cu,  2-Cu) :   0.6017 B(  1-Cu,  2-Cu) :   0.6014

Dispersion correction           -0.004124050
FINAL SINGLE POINT ENERGY     -4921.472358228523

DIPOLE MOMENT
-------------
                                X             Y             Z
Electronic contribution:     -0.00000       0.00028       0.00000
Nuclear contribution   :      0.00000       0.00000       0.00000
                        -----------------------------------------
Total Dipole Moment    :     -0.00000       0.00028       0.00000
                        -----------------------------------------
Magnitude (a.u.)       :      0.00028
Magnitude (Debye)      :      0.00070

Rotational constants in cm-1:     0.097140     0.097140     0.048570
Rotational constants in MHz :  2912.185801  2912.185732  1456.092883

                             ****ORCA TERMINATED NORMALLY****
TOTAL RUN TIME: 0 days 0 hours 0 minutes 3 seconds 313 msec
