                         Program Version 4.2.0 -  RELEASE  -
|  1> #
|  2> # Cu03C1_LIN TPSS-D3BJ/Def2-TZVPPD
|  3> #
|  4> ! tpss d3bj def2-tzvppd def2/j grid4 nofinalgrid
|  5>
|  6> *xyz 1 1
|  7> Cu       0.000000    0.000000    0.000000
|  8> Cu       0.000000    0.000000    2.337165
|  9> Cu       0.000000    0.000000   -2.337165
| 10> *
| 11>
| 12> %maxcore 5000
| 13>
| 14> %pal
| 15> nprocs = 24
| 16> end
| 17>
| 18>
| 19>                          ****END OF INPUT****

CARTESIAN COORDINATES (ANGSTROEM)
---------------------------------
  Cu     0.000000    0.000000    0.000000
  Cu     0.000000    0.000000    2.337165
  Cu     0.000000    0.000000   -2.337165

 Total Charge           Charge          ....    1
 Multiplicity           Mult            ....    1
 Number of Electrons    NEL             ....   86
 Basis Dimension        Dim             ....  201

ORBITAL ENERGIES
----------------

  NO   OCC          E(Eh)            E(eV)
   0   2.0000    -322.300077     -8770.2310
   1   2.0000    -322.300074     -8770.2309
   2   2.0000    -322.265938     -8769.3020
   3   2.0000     -38.584324     -1049.9328
   4   2.0000     -38.584303     -1049.9323
   5   2.0000     -38.557811     -1049.2114
   6   2.0000     -33.804175      -919.8584
   7   2.0000     -33.804172      -919.8583
   8   2.0000     -33.803398      -919.8372
   9   2.0000     -33.803398      -919.8372
  10   2.0000     -33.803396      -919.8372
  11   2.0000     -33.803396      -919.8372
  12   2.0000     -33.776800      -919.1135
  13   2.0000     -33.776571      -919.1072
  14   2.0000     -33.776571      -919.1072
  15   2.0000      -4.346356      -118.2703
  16   2.0000      -4.346336      -118.2698
  17   2.0000      -4.315409      -117.4283
  18   2.0000      -2.862114       -77.8821
  19   2.0000      -2.861963       -77.8780
  20   2.0000      -2.857086       -77.7453
  21   2.0000      -2.857086       -77.7453
  22   2.0000      -2.857086       -77.7453
  23   2.0000      -2.857086       -77.7453
  24   2.0000      -2.831841       -77.0583
  25   2.0000      -2.824419       -76.8563
  26   2.0000      -2.824419       -76.8563
  27   2.0000      -0.451416       -12.2837
  28   2.0000      -0.420009       -11.4290
  29   2.0000      -0.420009       -11.4290
  30   2.0000      -0.415653       -11.3105
  31   2.0000      -0.411709       -11.2032
  32   2.0000      -0.411709       -11.2032
  33   2.0000      -0.405827       -11.0431
  34   2.0000      -0.405817       -11.0428
  35   2.0000      -0.405268       -11.0279
  36   2.0000      -0.405258       -11.0276
  37   2.0000      -0.389957       -10.6113
  38   2.0000      -0.371459       -10.1079
  39   2.0000      -0.371459       -10.1079
  40   2.0000      -0.370441       -10.0802
  41   2.0000      -0.370427       -10.0798
  42   2.0000      -0.364164        -9.9094
  43   0.0000      -0.352929        -9.6037
  44   0.0000      -0.252808        -6.8793
  45   0.0000      -0.211544        -5.7564
  46   0.0000      -0.211544        -5.7564
  47   0.0000      -0.184262        -5.0140

MULLIKEN ATOMIC CHARGES
-----------------------
   0 Cu:   -0.277384
   1 Cu:    0.638679
   2 Cu:    0.638705
Sum of atomic charges:    1.0000000

LOEWDIN ATOMIC CHARGES
----------------------
   0 Cu:    0.120377
   1 Cu:    0.439811
   2 Cu:    0.439812

  Mayer bond orders larger than 0.100000
B(  0-Cu,  1-Cu) :   0.5065 B(  0-Cu,  2-Cu) :   0.5064 B(  1-Cu,  2-Cu) :   0.2952

Dispersion correction           -0.003416204
FINAL SINGLE POINT ENERGY     -4921.409096921107

DIPOLE MOMENT
-------------
                                X             Y             Z
Electronic contribution:     -0.00000       0.00000      -0.00000
Nuclear contribution   :      0.00000       0.00000       0.00000
                        -----------------------------------------
Total Dipole Moment    :     -0.00000       0.00000      -0.00000
                        -----------------------------------------
Magnitude (a.u.)       :      0.00000
Magnitude (Debye)      :      0.00001

Rotational constants in cm-1:     0.000000     0.024281     0.024281
Rotational constants in MHz :     0.000000   727.936180   727.936180

                             ****ORCA TERMINATED NORMALLY****
TOTAL RUN TIME: 0 days 0 hours 0 minutes 3 seconds 667 msec
