                         Program Version 4.2.0 -  RELEASE  -
|  1> #
|  2> # Cu03N0_D3H TPSS-D3BJ/Def2-TZVPPD
|  3> #
|  4> ! tpss d3bj def2-tzvppd def2/j grid4 nofinalgrid
|  5>
|  6> *xyz 0 2
|  7> Cu       0.000000    1.346828   -0.000000
|  8> Cu       1.166387   -0.673414   -0.000000
|  9> Cu      -1.166387   -0.673414   -0.000000
| 10> *
| 11>
| 12> %maxcore 5000
| 13>
| 14> %pal
| 15> nprocs = 24
| 16> end
| 17>
| 18>
| 19>                          ****END OF INPUT****

CARTESIAN COORDINATES (ANGSTROEM)
---------------------------------
  Cu     0.000000    1.346828   -0.000000
  Cu     1.166387   -0.673414   -0.000000
  Cu    -1.166387   -0.673414   -0.000000

 Total Charge           Charge          ....    0
 Multiplicity           Mult            ....    2
 Number of Electrons    NEL             ....   87
 Basis Dimension        Dim             ....  201

ORBITAL ENERGIES
----------------
                 SPIN UP ORBITALS
  NO   OCC          E(Eh)            E(eV)
   0   1.0000    -322.101499     -8764.8274
   1   1.0000    -322.101487     -8764.8271
   2   1.0000    -322.093605     -8764.6126
   3   1.0000     -38.392916     -1044.7243
   4   1.0000     -38.392880     -1044.7234
   5   1.0000     -38.388397     -1044.6014
   6   1.0000     -33.612130      -914.6326
   7   1.0000     -33.612119      -914.6323
   8   1.0000     -33.611763      -914.6226
   9   1.0000     -33.611752      -914.6223
  10   1.0000     -33.611604      -914.6182
  11   1.0000     -33.611591      -914.6179
  12   1.0000     -33.607590      -914.5090
  13   1.0000     -33.607172      -914.4976
  14   1.0000     -33.606694      -914.4846
  15   1.0000      -4.151274      -112.9619
  16   1.0000      -4.150934      -112.9526
  17   1.0000      -4.144273      -112.7714
  18   1.0000      -2.667422       -72.5842
  19   1.0000      -2.664515       -72.5051
  20   1.0000      -2.662796       -72.4584
  21   1.0000      -2.661956       -72.4355
  22   1.0000      -2.660102       -72.3851
  23   1.0000      -2.659811       -72.3771
  24   1.0000      -2.658124       -72.3312
  25   1.0000      -2.656963       -72.2996
  26   1.0000      -2.650535       -72.1247
  27   1.0000      -0.279732        -7.6119
  28   1.0000      -0.239682        -6.5221
  29   1.0000      -0.237066        -6.4509
  30   1.0000      -0.235592        -6.4108
  31   1.0000      -0.231124        -6.2892
  32   1.0000      -0.218292        -5.9400
  33   1.0000      -0.215314        -5.8590
  34   1.0000      -0.212714        -5.7882
  35   1.0000      -0.202129        -5.5002
  36   1.0000      -0.200549        -5.4572
  37   1.0000      -0.198770        -5.4088
  38   1.0000      -0.198020        -5.3884
  39   1.0000      -0.194174        -5.2838
  40   1.0000      -0.193456        -5.2642
  41   1.0000      -0.192908        -5.2493
  42   1.0000      -0.186184        -5.0663
  43   1.0000      -0.130845        -3.5605
  44   0.0000      -0.126499        -3.4422
  45   0.0000      -0.063624        -1.7313
  46   0.0000      -0.041883        -1.1397
  47   0.0000      -0.021186        -0.5765
  48   0.0000      -0.019126        -0.5204

                 SPIN DOWN ORBITALS
  NO   OCC          E(Eh)            E(eV)
   0   1.0000    -322.101331     -8764.8228
   1   1.0000    -322.101319     -8764.8225
   2   1.0000    -322.093095     -8764.5987
   3   1.0000     -38.392959     -1044.7255
   4   1.0000     -38.392923     -1044.7246
   5   1.0000     -38.388491     -1044.6039
   6   1.0000     -33.611930      -914.6271
   7   1.0000     -33.611922      -914.6269
   8   1.0000     -33.611919      -914.6268
   9   1.0000     -33.611910      -914.6266
  10   1.0000     -33.611576      -914.6175
  11   1.0000     -33.611564      -914.6172
  12   1.0000     -33.607258      -914.5000
  13   1.0000     -33.607070      -914.4949
  14   1.0000     -33.607053      -914.4944
  15   1.0000      -4.151216      -112.9603
  16   1.0000      -4.150875      -112.9511
  17   1.0000      -4.144039      -112.7650
  18   1.0000      -2.667129       -72.5763
  19   1.0000      -2.664449       -72.5034
  20   1.0000      -2.662507       -72.4505
  21   1.0000      -2.661456       -72.4219
  22   1.0000      -2.660227       -72.3885
  23   1.0000      -2.659937       -72.3806
  24   1.0000      -2.657834       -72.3233
  25   1.0000      -2.655991       -72.2732
  26   1.0000      -2.650430       -72.1219
  27   1.0000      -0.275495        -7.4966
  28   1.0000      -0.237211        -6.4548
  29   1.0000      -0.234591        -6.3835
  30   1.0000      -0.233122        -6.3436
  31   1.0000      -0.225674        -6.1409
  32   1.0000      -0.216634        -5.8949
  33   1.0000      -0.213262        -5.8031
  34   1.0000      -0.210005        -5.7145
  35   1.0000      -0.201084        -5.4718
  36   1.0000      -0.199662        -5.4331
  37   1.0000      -0.198203        -5.3934
  38   1.0000      -0.194534        -5.2935
  39   1.0000      -0.190815        -5.1923
  40   1.0000      -0.190109        -5.1731
  41   1.0000      -0.189419        -5.1544
  42   1.0000      -0.182026        -4.9532
  43   0.0000      -0.118363        -3.2208
  44   0.0000      -0.100601        -2.7375
  45   0.0000      -0.055099        -1.4993
  46   0.0000      -0.028965        -0.7882
  47   0.0000      -0.004362        -0.1187

MULLIKEN ATOMIC CHARGES AND SPIN POPULATIONS
--------------------------------------------
   0 Cu:   -0.066296    0.598904
   1 Cu:    0.033206    0.200524
   2 Cu:    0.033090    0.200572
Sum of atomic charges         :   -0.0000000

LOEWDIN ATOMIC CHARGES AND SPIN POPULATIONS
-------------------------------------------
   0 Cu:   -0.018964    0.418037
   1 Cu:    0.009501    0.290974
   2 Cu:    0.009463    0.290990

  Mayer bond orders larger than 0.100000
B(  0-Cu,  1-Cu) :   0.5262 B(  0-Cu,  2-Cu) :   0.5262 B(  1-Cu,  2-Cu) :   0.8066

Dispersion correction           -0.004124500
FINAL SINGLE POINT ENERGY     -4921.686304655984

DIPOLE MOMENT
-------------
                                X             Y             Z
Electronic contribution:      0.00017      -0.32296      -0.00000
Nuclear contribution   :      0.00000       0.00000      -0.00000
                        -----------------------------------------
Total Dipole Moment    :      0.00017      -0.32296      -0.00000
                        -----------------------------------------
Magnitude (a.u.)       :      0.32296
Magnitude (Debye)      :      0.82090

Rotational constants in cm-1:     0.097491     0.097491     0.048746
Rotational constants in MHz :  2922.716641  2922.715325  1461.357991

                             ****ORCA TERMINATED NORMALLY****
TOTAL RUN TIME: 0 days 0 hours 0 minutes 4 seconds 507 msec
