                         Program Version 4.2.0 -  RELEASE  -
|  1> #
|  2> # Cu04C2_H_F TPSS-D3BJ/Def2-TZVPPD
|  3> #
|  4> ! tpss d3bj def2-tzvppd def2/j grid4 nofinalgrid
|  5>
|  6> *xyz 2 2
|  7> Cu      -0.000000    1.387730   -0.507533
|  8> Cu       1.201809   -0.693865   -0.507533
|  9> Cu      -1.201809   -0.693865   -0.507533
| 10> Cu       0.000000    0.000000    1.576640
| 11> H        0.000000    0.000000   -1.567185
| 12> *
| 13>
| 14> %maxcore 5000
| 15>
| 16> %pal
| 17> nprocs = 24
| 18> end
| 19>
| 20>
| 21>                          ****END OF INPUT****

CARTESIAN COORDINATES (ANGSTROEM)
---------------------------------
  Cu    -0.000000    1.387730   -0.507533
  Cu     1.201809   -0.693865   -0.507533
  Cu    -1.201809   -0.693865   -0.507533
  Cu     0.000000    0.000000    1.576640
  H      0.000000    0.000000   -1.567185

 Total Charge           Charge          ....    2
 Multiplicity           Mult            ....    2
 Number of Electrons    NEL             ....  115
 Basis Dimension        Dim             ....  285

ORBITAL ENERGIES
----------------
                 SPIN UP ORBITALS
  NO   OCC          E(Eh)            E(eV)
   0   1.0000    -322.531222     -8776.5207
   1   1.0000    -322.531203     -8776.5202
   2   1.0000    -322.531198     -8776.5201
   3   1.0000    -322.503103     -8775.7556
   4   1.0000     -38.822563     -1056.4156
   5   1.0000     -38.822548     -1056.4152
   6   1.0000     -38.822514     -1056.4143
   7   1.0000     -38.792656     -1055.6018
   8   1.0000     -34.042124      -926.3333
   9   1.0000     -34.042107      -926.3328
  10   1.0000     -34.042101      -926.3326
  11   1.0000     -34.041396      -926.3135
  12   1.0000     -34.041377      -926.3130
  13   1.0000     -34.041373      -926.3129
  14   1.0000     -34.040602      -926.2919
  15   1.0000     -34.040583      -926.2914
  16   1.0000     -34.040577      -926.2912
  17   1.0000     -34.011931      -925.5117
  18   1.0000     -34.011614      -925.5031
  19   1.0000     -34.011614      -925.5031
  20   1.0000      -4.583113      -124.7129
  21   1.0000      -4.582763      -124.7033
  22   1.0000      -4.582753      -124.7030
  23   1.0000      -4.550520      -123.8259
  24   1.0000      -3.100529       -84.3697
  25   1.0000      -3.098064       -84.3026
  26   1.0000      -3.098053       -84.3023
  27   1.0000      -3.093518       -84.1789
  28   1.0000      -3.093106       -84.1677
  29   1.0000      -3.093093       -84.1673
  30   1.0000      -3.090979       -84.1098
  31   1.0000      -3.090974       -84.1097
  32   1.0000      -3.090012       -84.0835
  33   1.0000      -3.064943       -83.4013
  34   1.0000      -3.060547       -83.2817
  35   1.0000      -3.060547       -83.2817
  36   1.0000      -0.804284       -21.8857
  37   1.0000      -0.701753       -19.0957
  38   1.0000      -0.665917       -18.1205
  39   1.0000      -0.665903       -18.1202
  40   1.0000      -0.657752       -17.8983
  41   1.0000      -0.653241       -17.7756
  42   1.0000      -0.653230       -17.7753
  43   1.0000      -0.647938       -17.6313
  44   1.0000      -0.639927       -17.4133
  45   1.0000      -0.639916       -17.4130
  46   1.0000      -0.632356       -17.2073
  47   1.0000      -0.632345       -17.2070
  48   1.0000      -0.628176       -17.0936
  49   1.0000      -0.628145       -17.0927
  50   1.0000      -0.626379       -17.0446
  51   1.0000      -0.615121       -16.7383
  52   1.0000      -0.606621       -16.5070
  53   1.0000      -0.605100       -16.4656
  54   1.0000      -0.605091       -16.4654
  55   1.0000      -0.602185       -16.3863
  56   1.0000      -0.602161       -16.3856
  57   1.0000      -0.558309       -15.1924
  58   0.0000      -0.501616       -13.6497
  59   0.0000      -0.501611       -13.6495
  60   0.0000      -0.420560       -11.4440
  61   0.0000      -0.384254       -10.4561
  62   0.0000      -0.363651        -9.8954

                 SPIN DOWN ORBITALS
  NO   OCC          E(Eh)            E(eV)
   0   1.0000    -322.531093     -8776.5172
   1   1.0000    -322.531074     -8776.5167
   2   1.0000    -322.531069     -8776.5166
   3   1.0000    -322.502687     -8775.7443
   4   1.0000     -38.820440     -1056.3579
   5   1.0000     -38.820425     -1056.3575
   6   1.0000     -38.820391     -1056.3565
   7   1.0000     -38.793290     -1055.6191
   8   1.0000     -34.040002      -926.2756
   9   1.0000     -34.039983      -926.2750
  10   1.0000     -34.039978      -926.2749
  11   1.0000     -34.039455      -926.2607
  12   1.0000     -34.039437      -926.2602
  13   1.0000     -34.039432      -926.2600
  14   1.0000     -34.039312      -926.2568
  15   1.0000     -34.039293      -926.2562
  16   1.0000     -34.039288      -926.2561
  17   1.0000     -34.012161      -925.5179
  18   1.0000     -34.012160      -925.5179
  19   1.0000     -34.012159      -925.5179
  20   1.0000      -4.578328      -124.5826
  21   1.0000      -4.577976      -124.5731
  22   1.0000      -4.577965      -124.5728
  23   1.0000      -4.551558      -123.8542
  24   1.0000      -3.093960       -84.1909
  25   1.0000      -3.091606       -84.1269
  26   1.0000      -3.091597       -84.1266
  27   1.0000      -3.089304       -84.0642
  28   1.0000      -3.089302       -84.0642
  29   1.0000      -3.088515       -84.0428
  30   1.0000      -3.087417       -84.0129
  31   1.0000      -3.087029       -84.0023
  32   1.0000      -3.087015       -84.0019
  33   1.0000      -3.066214       -83.4359
  34   1.0000      -3.061111       -83.2971
  35   1.0000      -3.061111       -83.2971
  36   1.0000      -0.787980       -21.4420
  37   1.0000      -0.692254       -18.8372
  38   1.0000      -0.663730       -18.0610
  39   1.0000      -0.663717       -18.0607
  40   1.0000      -0.652517       -17.7559
  41   1.0000      -0.647542       -17.6205
  42   1.0000      -0.647528       -17.6201
  43   1.0000      -0.645096       -17.5539
  44   1.0000      -0.636827       -17.3289
  45   1.0000      -0.636816       -17.3286
  46   1.0000      -0.626028       -17.0351
  47   1.0000      -0.625994       -17.0342
  48   1.0000      -0.623280       -16.9603
  49   1.0000      -0.622255       -16.9324
  50   1.0000      -0.622246       -16.9322
  51   1.0000      -0.612484       -16.6665
  52   1.0000      -0.603266       -16.4157
  53   1.0000      -0.602831       -16.4039
  54   1.0000      -0.602821       -16.4036
  55   1.0000      -0.599542       -16.3144
  56   1.0000      -0.599516       -16.3137
  57   0.0000      -0.537533       -14.6270
  58   0.0000      -0.495214       -13.4755
  59   0.0000      -0.495210       -13.4753
  60   0.0000      -0.408794       -11.1239
  61   0.0000      -0.376677       -10.2499

MULLIKEN ATOMIC CHARGES AND SPIN POPULATIONS
--------------------------------------------
   0 Cu:    0.394803    0.092426
   1 Cu:    0.394621    0.092484
   2 Cu:    0.394632    0.092482
   3 Cu:    0.325956    0.469584
   4 H :    0.489988    0.253024
Sum of atomic charges         :    2.0000000

LOEWDIN ATOMIC CHARGES AND SPIN POPULATIONS
-------------------------------------------
   0 Cu:    0.493985    0.238415
   1 Cu:    0.493999    0.238456
   2 Cu:    0.493999    0.238456
   3 Cu:    0.544699    0.159271
   4 H :   -0.026681    0.125401

  Mayer bond orders larger than 0.100000
B(  0-Cu,  1-Cu) :   0.5845 B(  0-Cu,  2-Cu) :   0.5845 B(  0-Cu,  3-Cu) :   0.3634
B(  1-Cu,  2-Cu) :   0.5845 B(  1-Cu,  3-Cu) :   0.3635 B(  2-Cu,  3-Cu) :   0.3635

Dispersion correction           -0.009773473
FINAL SINGLE POINT ENERGY     -6562.215175725264

DIPOLE MOMENT
-------------
                                X             Y             Z
Electronic contribution:     -0.00000      -0.00007       1.49377
Nuclear contribution   :      0.00000       0.00000      -1.60670
                        -----------------------------------------
Total Dipole Moment    :     -0.00000      -0.00007      -0.11293
                        -----------------------------------------
Magnitude (a.u.)       :      0.11293
Magnitude (Debye)      :      0.28705

Rotational constants in cm-1:     0.045915     0.042882     0.042882
Rotational constants in MHz :  1376.483459  1285.559854  1285.559421

                             ****ORCA TERMINATED NORMALLY****
TOTAL RUN TIME: 0 days 0 hours 0 minutes 6 seconds 131 msec
