                         Program Version 4.2.0 -  RELEASE  -
|  1> #
|  2> # Cu04C2_NH3_F TPSS-D3BJ/Def2-TZVPPD
|  3> #
|  4> ! tpss d3bj def2-tzvppd def2/j grid4 nofinalgrid
|  5>
|  6> *xyz 2 1
|  7> Cu       0.253817    1.375381    0.000000
|  8> Cu       0.253817   -0.687598    1.191098
|  9> Cu       0.253817   -0.687598   -1.191098
| 10> Cu      -1.745352    0.000159    0.000000
| 11> N        2.725949   -0.000959   -0.000000
| 12> H        3.150217   -0.936878   -0.000000
| 13> H        3.150637    0.466806   -0.810419
| 14> H        3.150637    0.466806    0.810419
| 15> *
| 16>
| 17> %maxcore 5000
| 18>
| 19> %pal
| 20> nprocs = 24
| 21> end
| 22>
| 23>
| 24>                          ****END OF INPUT****

CARTESIAN COORDINATES (ANGSTROEM)
---------------------------------
  Cu     0.253817    1.375381    0.000000
  Cu     0.253817   -0.687598    1.191098
  Cu     0.253817   -0.687598   -1.191098
  Cu    -1.745352    0.000159    0.000000
  N      2.725949   -0.000959   -0.000000
  H      3.150217   -0.936878   -0.000000
  H      3.150637    0.466806   -0.810419
  H      3.150637    0.466806    0.810419

 Total Charge           Charge          ....    2
 Multiplicity           Mult            ....    1
 Number of Electrons    NEL             ....  124
 Basis Dimension        Dim             ....  356

ORBITAL ENERGIES
----------------

  NO   OCC          E(Eh)            E(eV)
   0   2.0000    -322.473933     -8774.9618
   1   2.0000    -322.473919     -8774.9615
   2   2.0000    -322.473916     -8774.9614
   3   2.0000    -322.470065     -8774.8566
   4   2.0000     -38.763219     -1054.8008
   5   2.0000     -38.763206     -1054.8005
   6   2.0000     -38.763182     -1054.7998
   7   2.0000     -38.760024     -1054.7139
   8   2.0000     -33.982391      -924.7079
   9   2.0000     -33.982375      -924.7074
  10   2.0000     -33.982370      -924.7073
  11   2.0000     -33.982323      -924.7060
  12   2.0000     -33.982307      -924.7056
  13   2.0000     -33.982304      -924.7055
  14   2.0000     -33.982022      -924.6978
  15   2.0000     -33.982006      -924.6974
  16   2.0000     -33.982004      -924.6973
  17   2.0000     -33.979097      -924.6182
  18   2.0000     -33.978965      -924.6146
  19   2.0000     -33.978965      -924.6146
  20   2.0000     -14.445782      -393.0897
  21   2.0000      -4.522816      -123.0721
  22   2.0000      -4.522416      -123.0612
  23   2.0000      -4.522405      -123.0609
  24   2.0000      -4.518427      -122.9526
  25   2.0000      -3.038481       -82.6813
  26   2.0000      -3.036102       -82.6165
  27   2.0000      -3.036098       -82.6164
  28   2.0000      -3.034352       -82.5689
  29   2.0000      -3.034347       -82.5688
  30   2.0000      -3.033629       -82.5492
  31   2.0000      -3.033156       -82.5364
  32   2.0000      -3.031468       -82.4904
  33   2.0000      -3.031457       -82.4901
  34   2.0000      -3.031321       -82.4864
  35   2.0000      -3.028382       -82.4065
  36   2.0000      -3.028381       -82.4064
  37   2.0000      -1.142999       -31.1026
  38   2.0000      -0.759778       -20.6746
  39   2.0000      -0.759772       -20.6744
  40   2.0000      -0.679589       -18.4926
  41   2.0000      -0.640204       -17.4208
  42   2.0000      -0.615073       -16.7370
  43   2.0000      -0.615051       -16.7364
  44   2.0000      -0.610074       -16.6009
  45   2.0000      -0.600742       -16.3470
  46   2.0000      -0.600740       -16.3470
  47   2.0000      -0.594936       -16.1890
  48   2.0000      -0.589564       -16.0428
  49   2.0000      -0.589550       -16.0425
  50   2.0000      -0.573529       -15.6065
  51   2.0000      -0.571901       -15.5622
  52   2.0000      -0.571858       -15.5610
  53   2.0000      -0.569916       -15.5082
  54   2.0000      -0.569230       -15.4895
  55   2.0000      -0.569214       -15.4891
  56   2.0000      -0.567498       -15.4424
  57   2.0000      -0.567494       -15.4423
  58   2.0000      -0.558099       -15.1866
  59   2.0000      -0.557576       -15.1724
  60   2.0000      -0.555937       -15.1278
  61   2.0000      -0.555912       -15.1271
  62   0.0000      -0.459923       -12.5151
  63   0.0000      -0.459915       -12.5149
  64   0.0000      -0.437842       -11.9143
  65   0.0000      -0.352291        -9.5863
  66   0.0000      -0.332152        -9.0383

MULLIKEN ATOMIC CHARGES
-----------------------
   0 Cu:    0.460966
   1 Cu:    0.460778
   2 Cu:    0.460751
   3 Cu:    0.229945
   4 N :   -0.274400
   5 H :    0.220827
   6 H :    0.220564
   7 H :    0.220569
Sum of atomic charges:    2.0000000

LOEWDIN ATOMIC CHARGES
----------------------
   0 Cu:    0.408088
   1 Cu:    0.407992
   2 Cu:    0.407991
   3 Cu:    0.482783
   4 N :    0.502541
   5 H :   -0.069798
   6 H :   -0.069799
   7 H :   -0.069799

  Mayer bond orders larger than 0.100000
B(  0-Cu,  1-Cu) :   0.4703 B(  0-Cu,  2-Cu) :   0.4703 B(  0-Cu,  3-Cu) :   0.4543
B(  1-Cu,  2-Cu) :   0.4702 B(  1-Cu,  3-Cu) :   0.4539 B(  2-Cu,  3-Cu) :   0.4540
B(  4-N ,  5-H ) :   0.9830 B(  4-N ,  6-H ) :   0.9832 B(  4-N ,  7-H ) :   0.9832

Dispersion correction           -0.014013439
FINAL SINGLE POINT ENERGY     -6618.298128988732

DIPOLE MOMENT
-------------
                                X             Y             Z
Electronic contribution:    -11.35997       0.00411       0.00000
Nuclear contribution   :     13.00779      -0.00451       0.00000
                        -----------------------------------------
Total Dipole Moment    :      1.64782      -0.00040       0.00000
                        -----------------------------------------
Magnitude (a.u.)       :      1.64782
Magnitude (Debye)      :      4.18842

Rotational constants in cm-1:     0.046405     0.032369     0.032369
Rotational constants in MHz :  1391.178817   970.405392   970.384771

                             ****ORCA TERMINATED NORMALLY****
TOTAL RUN TIME: 0 days 0 hours 0 minutes 6 seconds 505 msec
