                         Program Version 4.2.0 -  RELEASE  -
|  1> #
|  2> # Cu04C2_NH3_A TPSS-D3BJ/Def2-TZVPPD
|  3> #
|  4> ! tpss d3bj def2-tzvppd def2/j grid4 nofinalgrid
|  5>
|  6> *xyz 2 1
|  7> Cu       0.543145   -0.896300    1.192832
|  8> Cu       0.543145   -0.896300   -1.192832
|  9> Cu      -1.492086   -0.543328    0.000000
| 10> Cu       0.211399    1.215580   -0.000000
| 11> N        0.543145    3.129666   -0.000000
| 12> H        0.146420    3.607894   -0.818022
| 13> H        0.146420    3.607894    0.818022
| 14> H        1.542647    3.366638   -0.000000
| 15> *
| 16>
| 17> %maxcore 5000
| 18>
| 19> %pal
| 20> nprocs = 24
| 21> end
| 22>
| 23>
| 24>                          ****END OF INPUT****

CARTESIAN COORDINATES (ANGSTROEM)
---------------------------------
  Cu     0.543145   -0.896300    1.192832
  Cu     0.543145   -0.896300   -1.192832
  Cu    -1.492086   -0.543328    0.000000
  Cu     0.211399    1.215580   -0.000000
  N      0.543145    3.129666   -0.000000
  H      0.146420    3.607894   -0.818022
  H      0.146420    3.607894    0.818022
  H      1.542647    3.366638   -0.000000

 Total Charge           Charge          ....    2
 Multiplicity           Mult            ....    1
 Number of Electrons    NEL             ....  124
 Basis Dimension        Dim             ....  356

ORBITAL ENERGIES
----------------

  NO   OCC          E(Eh)            E(eV)
   0   2.0000    -322.472871     -8774.9329
   1   2.0000    -322.472868     -8774.9328
   2   2.0000    -322.472860     -8774.9326
   3   2.0000    -322.466175     -8774.7507
   4   2.0000     -38.763860     -1054.8183
   5   2.0000     -38.762530     -1054.7821
   6   2.0000     -38.762524     -1054.7819
   7   2.0000     -38.762491     -1054.7810
   8   2.0000     -33.982992      -924.7242
   9   2.0000     -33.982134      -924.7009
  10   2.0000     -33.982132      -924.7008
  11   2.0000     -33.981613      -924.6867
  12   2.0000     -33.981611      -924.6866
  13   2.0000     -33.981602      -924.6864
  14   2.0000     -33.981548      -924.6849
  15   2.0000     -33.981538      -924.6847
  16   2.0000     -33.981533      -924.6845
  17   2.0000     -33.981453      -924.6824
  18   2.0000     -33.981450      -924.6823
  19   2.0000     -33.981440      -924.6820
  20   2.0000     -14.458512      -393.4361
  21   2.0000      -4.521605      -123.0391
  22   2.0000      -4.521209      -123.0284
  23   2.0000      -4.521203      -123.0282
  24   2.0000      -4.519483      -122.9814
  25   2.0000      -3.037511       -82.6549
  26   2.0000      -3.034910       -82.5841
  27   2.0000      -3.034900       -82.5838
  28   2.0000      -3.033469       -82.5449
  29   2.0000      -3.032355       -82.5146
  30   2.0000      -3.032347       -82.5143
  31   2.0000      -3.031407       -82.4888
  32   2.0000      -3.031061       -82.4794
  33   2.0000      -3.030904       -82.4751
  34   2.0000      -3.030895       -82.4748
  35   2.0000      -3.028506       -82.4098
  36   2.0000      -3.028493       -82.4095
  37   2.0000      -1.157454       -31.4959
  38   2.0000      -0.772981       -21.0339
  39   2.0000      -0.772962       -21.0334
  40   2.0000      -0.697033       -18.9672
  41   2.0000      -0.650999       -17.7146
  42   2.0000      -0.612396       -16.6641
  43   2.0000      -0.612017       -16.6538
  44   2.0000      -0.612003       -16.6534
  45   2.0000      -0.598389       -16.2830
  46   2.0000      -0.598371       -16.2825
  47   2.0000      -0.595113       -16.1938
  48   2.0000      -0.590286       -16.0625
  49   2.0000      -0.587552       -15.9881
  50   2.0000      -0.587547       -15.9880
  51   2.0000      -0.570091       -15.5130
  52   2.0000      -0.570052       -15.5119
  53   2.0000      -0.568110       -15.4591
  54   2.0000      -0.568067       -15.4579
  55   2.0000      -0.568044       -15.4573
  56   2.0000      -0.566135       -15.4053
  57   2.0000      -0.566117       -15.4048
  58   2.0000      -0.555874       -15.1261
  59   2.0000      -0.554623       -15.0920
  60   2.0000      -0.554616       -15.0919
  61   2.0000      -0.551282       -15.0011
  62   0.0000      -0.456497       -12.4219
  63   0.0000      -0.456470       -12.4212
  64   0.0000      -0.427135       -11.6229
  65   0.0000      -0.340172        -9.2565
  66   0.0000      -0.324851        -8.8396

MULLIKEN ATOMIC CHARGES
-----------------------
   0 Cu:    0.515846
   1 Cu:    0.515862
   2 Cu:    0.515956
   3 Cu:   -0.003167
   4 N :   -0.213355
   5 H :    0.222899
   6 H :    0.222898
   7 H :    0.223062
Sum of atomic charges:    2.0000000

LOEWDIN ATOMIC CHARGES
----------------------
   0 Cu:    0.456919
   1 Cu:    0.456918
   2 Cu:    0.456930
   3 Cu:    0.280087
   4 N :    0.476005
   5 H :   -0.042280
   6 H :   -0.042280
   7 H :   -0.042299

  Mayer bond orders larger than 0.100000
B(  0-Cu,  1-Cu) :   0.4074 B(  0-Cu,  2-Cu) :   0.4076 B(  0-Cu,  3-Cu) :   0.2609
B(  1-Cu,  2-Cu) :   0.4076 B(  1-Cu,  3-Cu) :   0.2609 B(  2-Cu,  3-Cu) :   0.2608
B(  3-Cu,  4-N ) :   0.1691 B(  4-N ,  5-H ) :   0.9690 B(  4-N ,  6-H ) :   0.9690
B(  4-N ,  7-H ) :   0.9689

Dispersion correction           -0.012489643
FINAL SINGLE POINT ENERGY     -6618.348664723973

DIPOLE MOMENT
-------------
                                X             Y             Z
Electronic contribution:     -2.26135     -13.03306       0.00000
Nuclear contribution   :      2.54223      14.65497       0.00000
                        -----------------------------------------
Total Dipole Moment    :      0.28087       1.62191       0.00000
                        -----------------------------------------
Magnitude (a.u.)       :      1.64605
Magnitude (Debye)      :      4.18394

Rotational constants in cm-1:     0.046273     0.029218     0.029214
Rotational constants in MHz :  1387.222495   875.924520   875.809559

                             ****ORCA TERMINATED NORMALLY****
TOTAL RUN TIME: 0 days 0 hours 0 minutes 6 seconds 970 msec
