                         Program Version 4.2.0 -  RELEASE  -
|  1> #
|  2> # Cu04C2_H_A TPSS-D3BJ/Def2-TZVPPD
|  3> #
|  4> ! tpss d3bj def2-tzvppd def2/j grid4 nofinalgrid
|  5>
|  6> *xyz 2 2
|  7> Cu      -0.000000    1.401870   -0.545062
|  8> Cu       1.214055   -0.700935   -0.545062
|  9> Cu      -1.214055   -0.700935   -0.545062
| 10> Cu       0.000000    0.000000    1.530006
| 11> H        0.000000    0.000000    3.050192
| 12> *
| 13>
| 14> %maxcore 5000
| 15>
| 16> %pal
| 17> nprocs = 24
| 18> end
| 19>
| 20>
| 21>                          ****END OF INPUT****

CARTESIAN COORDINATES (ANGSTROEM)
---------------------------------
  Cu    -0.000000    1.401870   -0.545062
  Cu     1.214055   -0.700935   -0.545062
  Cu    -1.214055   -0.700935   -0.545062
  Cu     0.000000    0.000000    1.530006
  H      0.000000    0.000000    3.050192

 Total Charge           Charge          ....    2
 Multiplicity           Mult            ....    2
 Number of Electrons    NEL             ....  115
 Basis Dimension        Dim             ....  285

ORBITAL ENERGIES
----------------
                 SPIN UP ORBITALS
  NO   OCC          E(Eh)            E(eV)
   0   1.0000    -322.539425     -8776.7440
   1   1.0000    -322.516419     -8776.1179
   2   1.0000    -322.516407     -8776.1176
   3   1.0000    -322.516403     -8776.1175
   4   1.0000     -38.838802     -1056.8575
   5   1.0000     -38.805400     -1055.9486
   6   1.0000     -38.805391     -1055.9484
   7   1.0000     -38.805361     -1055.9475
   8   1.0000     -34.060023      -926.8204
   9   1.0000     -34.055657      -926.7015
  10   1.0000     -34.055655      -926.7015
  11   1.0000     -34.024551      -925.8551
  12   1.0000     -34.024539      -925.8548
  13   1.0000     -34.024537      -925.8547
  14   1.0000     -34.024445      -925.8522
  15   1.0000     -34.024434      -925.8519
  16   1.0000     -34.024427      -925.8517
  17   1.0000     -34.024285      -925.8479
  18   1.0000     -34.024272      -925.8475
  19   1.0000     -34.024267      -925.8474
  20   1.0000      -4.595589      -125.0523
  21   1.0000      -4.564874      -124.2165
  22   1.0000      -4.564575      -124.2084
  23   1.0000      -4.564568      -124.2082
  24   1.0000      -3.121949       -84.9526
  25   1.0000      -3.098108       -84.3038
  26   1.0000      -3.098097       -84.3035
  27   1.0000      -3.080671       -83.8293
  28   1.0000      -3.078628       -83.7737
  29   1.0000      -3.078620       -83.7735
  30   1.0000      -3.075259       -83.6821
  31   1.0000      -3.075025       -83.6757
  32   1.0000      -3.075018       -83.6755
  33   1.0000      -3.074557       -83.6630
  34   1.0000      -3.074556       -83.6629
  35   1.0000      -3.073908       -83.6453
  36   1.0000      -0.743723       -20.2377
  37   1.0000      -0.685470       -18.6526
  38   1.0000      -0.666560       -18.1380
  39   1.0000      -0.666525       -18.1371
  40   1.0000      -0.653793       -17.7906
  41   1.0000      -0.647859       -17.6291
  42   1.0000      -0.647851       -17.6289
  43   1.0000      -0.640652       -17.4330
  44   1.0000      -0.639652       -17.4058
  45   1.0000      -0.639645       -17.4056
  46   1.0000      -0.632612       -17.2142
  47   1.0000      -0.623022       -16.9533
  48   1.0000      -0.623010       -16.9530
  49   1.0000      -0.613592       -16.6967
  50   1.0000      -0.613553       -16.6956
  51   1.0000      -0.612106       -16.6563
  52   1.0000      -0.612093       -16.6559
  53   1.0000      -0.611675       -16.6445
  54   1.0000      -0.608513       -16.5585
  55   1.0000      -0.608509       -16.5584
  56   1.0000      -0.607872       -16.5410
  57   1.0000      -0.599642       -16.3171
  58   0.0000      -0.494714       -13.4618
  59   0.0000      -0.494706       -13.4616
  60   0.0000      -0.461452       -12.5568
  61   0.0000      -0.371595       -10.1116
  62   0.0000      -0.361899        -9.8478

                 SPIN DOWN ORBITALS
  NO   OCC          E(Eh)            E(eV)
   0   1.0000    -322.538890     -8776.7294
   1   1.0000    -322.516382     -8776.1169
   2   1.0000    -322.516370     -8776.1166
   3   1.0000    -322.516366     -8776.1165
   4   1.0000     -38.834764     -1056.7477
   5   1.0000     -38.805099     -1055.9404
   6   1.0000     -38.805090     -1055.9402
   7   1.0000     -38.805060     -1055.9394
   8   1.0000     -34.055253      -926.6905
   9   1.0000     -34.052861      -926.6255
  10   1.0000     -34.052861      -926.6255
  11   1.0000     -34.024242      -925.8467
  12   1.0000     -34.024229      -925.8463
  13   1.0000     -34.024227      -925.8463
  14   1.0000     -34.024221      -925.8461
  15   1.0000     -34.024212      -925.8459
  16   1.0000     -34.024207      -925.8457
  17   1.0000     -34.024056      -925.8416
  18   1.0000     -34.024044      -925.8413
  19   1.0000     -34.024040      -925.8412
  20   1.0000      -4.586102      -124.7942
  21   1.0000      -4.564166      -124.1973
  22   1.0000      -4.563867      -124.1891
  23   1.0000      -4.563859      -124.1889
  24   1.0000      -3.101997       -84.4096
  25   1.0000      -3.093976       -84.1914
  26   1.0000      -3.093969       -84.1912
  27   1.0000      -3.079408       -83.7950
  28   1.0000      -3.077466       -83.7421
  29   1.0000      -3.077456       -83.7418
  30   1.0000      -3.074723       -83.6675
  31   1.0000      -3.074720       -83.6674
  32   1.0000      -3.074458       -83.6602
  33   1.0000      -3.073888       -83.6447
  34   1.0000      -3.073883       -83.6446
  35   1.0000      -3.073825       -83.6430
  36   1.0000      -0.720394       -19.6029
  37   1.0000      -0.663295       -18.0492
  38   1.0000      -0.663262       -18.0483
  39   1.0000      -0.663127       -18.0446
  40   1.0000      -0.644891       -17.5484
  41   1.0000      -0.644779       -17.5453
  42   1.0000      -0.644767       -17.5450
  43   1.0000      -0.635477       -17.2922
  44   1.0000      -0.635465       -17.2919
  45   1.0000      -0.632974       -17.2241
  46   1.0000      -0.630856       -17.1665
  47   1.0000      -0.620589       -16.8871
  48   1.0000      -0.620580       -16.8868
  49   1.0000      -0.612441       -16.6654
  50   1.0000      -0.612403       -16.6643
  51   1.0000      -0.611434       -16.6380
  52   1.0000      -0.611415       -16.6375
  53   1.0000      -0.611208       -16.6318
  54   1.0000      -0.606202       -16.4956
  55   1.0000      -0.606188       -16.4952
  56   1.0000      -0.599330       -16.3086
  57   0.0000      -0.560590       -15.2544
  58   0.0000      -0.492606       -13.4045
  59   0.0000      -0.492599       -13.4043
  60   0.0000      -0.447633       -12.1807
  61   0.0000      -0.370320       -10.0769

MULLIKEN ATOMIC CHARGES AND SPIN POPULATIONS
--------------------------------------------
   0 Cu:    0.570122    0.031307
   1 Cu:    0.570081    0.031339
   2 Cu:    0.570080    0.031342
   3 Cu:   -0.302179    0.512317
   4 H :    0.591896    0.393694
Sum of atomic charges         :    2.0000000

LOEWDIN ATOMIC CHARGES AND SPIN POPULATIONS
-------------------------------------------
   0 Cu:    0.501246    0.049857
   1 Cu:    0.501239    0.049893
   2 Cu:    0.501239    0.049893
   3 Cu:    0.410042    0.450275
   4 H :    0.086235    0.400082

  Mayer bond orders larger than 0.100000
B(  0-Cu,  1-Cu) :   0.4088 B(  0-Cu,  2-Cu) :   0.4088 B(  0-Cu,  3-Cu) :   0.2700
B(  0-Cu,  4-H ) :   0.1434 B(  1-Cu,  2-Cu) :   0.4086 B(  1-Cu,  3-Cu) :   0.2700
B(  1-Cu,  4-H ) :   0.1434 B(  2-Cu,  3-Cu) :   0.2700 B(  2-Cu,  4-H ) :   0.1434
B(  3-Cu,  4-H ) :  -0.3211

Dispersion correction           -0.009185163
FINAL SINGLE POINT ENERGY     -6562.189350725140

DIPOLE MOMENT
-------------
                                X             Y             Z
Electronic contribution:      0.00000       0.00006      -3.39663
Nuclear contribution   :      0.00000       0.00000       3.12710
                        -----------------------------------------
Total Dipole Moment    :      0.00000       0.00006      -0.26953
                        -----------------------------------------
Magnitude (a.u.)       :      0.26953
Magnitude (Debye)      :      0.68509

Rotational constants in cm-1:     0.044993     0.041927     0.041927
Rotational constants in MHz :  1348.855174  1256.945404  1256.945373

                             ****ORCA TERMINATED NORMALLY****
TOTAL RUN TIME: 0 days 0 hours 0 minutes 6 seconds 813 msec
