                         Program Version 4.2.0 -  RELEASE  -
|  1> #
|  2> # Cu04C2_H_E TPSS-D3BJ/Def2-TZVPPD
|  3> #
|  4> ! tpss d3bj def2-tzvppd def2/j grid4 nofinalgrid
|  5>
|  6> *xyz 2 2
|  7> Cu      -0.967673    0.056725    1.180703
|  8> Cu      -0.972439   -0.054931   -1.177653
|  9> Cu       0.936359    1.185605   -0.057167
| 10> Cu       0.933653   -1.187345    0.053806
| 11> H        2.032882   -0.001578    0.009000
| 12> *
| 13>
| 14> %maxcore 5000
| 15>
| 16> %pal
| 17> nprocs = 24
| 18> end
| 19>
| 20>
| 21>                          ****END OF INPUT****

CARTESIAN COORDINATES (ANGSTROEM)
---------------------------------
  Cu    -0.967673    0.056725    1.180703
  Cu    -0.972439   -0.054931   -1.177653
  Cu     0.936359    1.185605   -0.057167
  Cu     0.933653   -1.187345    0.053806
  H      2.032882   -0.001578    0.009000

 Total Charge           Charge          ....    2
 Multiplicity           Mult            ....    2
 Number of Electrons    NEL             ....  115
 Basis Dimension        Dim             ....  285

ORBITAL ENERGIES
----------------
                 SPIN UP ORBITALS
  NO   OCC          E(Eh)            E(eV)
   0   1.0000    -322.536709     -8776.6700
   1   1.0000    -322.536650     -8776.6684
   2   1.0000    -322.511435     -8775.9823
   3   1.0000    -322.511342     -8775.9798
   4   1.0000     -38.831246     -1056.6519
   5   1.0000     -38.831180     -1056.6501
   6   1.0000     -38.800654     -1055.8195
   7   1.0000     -38.800559     -1055.8169
   8   1.0000     -34.051386      -926.5853
   9   1.0000     -34.051323      -926.5836
  10   1.0000     -34.049597      -926.5366
  11   1.0000     -34.049534      -926.5349
  12   1.0000     -34.048433      -926.5050
  13   1.0000     -34.048370      -926.5033
  14   1.0000     -34.020102      -925.7340
  15   1.0000     -34.020010      -925.7315
  16   1.0000     -34.019514      -925.7180
  17   1.0000     -34.019417      -925.7154
  18   1.0000     -34.019383      -925.7145
  19   1.0000     -34.019297      -925.7121
  20   1.0000      -4.591215      -124.9333
  21   1.0000      -4.590937      -124.9258
  22   1.0000      -4.560052      -124.0853
  23   1.0000      -4.559736      -124.0767
  24   1.0000      -3.110615       -84.6441
  25   1.0000      -3.108769       -84.5939
  26   1.0000      -3.102282       -84.4174
  27   1.0000      -3.101311       -84.3910
  28   1.0000      -3.094888       -84.2162
  29   1.0000      -3.094645       -84.2096
  30   1.0000      -3.075270       -83.6824
  31   1.0000      -3.073401       -83.6315
  32   1.0000      -3.071199       -83.5716
  33   1.0000      -3.070127       -83.5424
  34   1.0000      -3.069527       -83.5261
  35   1.0000      -3.069263       -83.5189
  36   1.0000      -0.770830       -20.9754
  37   1.0000      -0.709205       -19.2984
  38   1.0000      -0.667412       -18.1612
  39   1.0000      -0.666412       -18.1340
  40   1.0000      -0.659432       -17.9440
  41   1.0000      -0.650799       -17.7092
  42   1.0000      -0.648096       -17.6356
  43   1.0000      -0.648003       -17.6331
  44   1.0000      -0.646641       -17.5960
  45   1.0000      -0.640586       -17.4312
  46   1.0000      -0.634162       -17.2564
  47   1.0000      -0.631734       -17.1904
  48   1.0000      -0.623627       -16.9697
  49   1.0000      -0.622143       -16.9294
  50   1.0000      -0.617536       -16.8040
  51   1.0000      -0.614988       -16.7347
  52   1.0000      -0.612473       -16.6662
  53   1.0000      -0.607992       -16.5443
  54   1.0000      -0.606788       -16.5116
  55   1.0000      -0.604250       -16.4425
  56   1.0000      -0.600806       -16.3488
  57   1.0000      -0.575630       -15.6637
  58   0.0000      -0.499184       -13.5835
  59   0.0000      -0.491656       -13.3786
  60   0.0000      -0.432249       -11.7621
  61   0.0000      -0.381304       -10.3758
  62   0.0000      -0.373673       -10.1682

                 SPIN DOWN ORBITALS
  NO   OCC          E(Eh)            E(eV)
   0   1.0000    -322.536539     -8776.6654
   1   1.0000    -322.536480     -8776.6638
   2   1.0000    -322.511233     -8775.9768
   3   1.0000    -322.511139     -8775.9743
   4   1.0000     -38.827725     -1056.5561
   5   1.0000     -38.827660     -1056.5543
   6   1.0000     -38.800234     -1055.8080
   7   1.0000     -38.800159     -1055.8060
   8   1.0000     -34.047047      -926.4673
   9   1.0000     -34.046985      -926.4656
  10   1.0000     -34.046961      -926.4649
  11   1.0000     -34.046898      -926.4632
  12   1.0000     -34.046605      -926.4552
  13   1.0000     -34.046542      -926.4535
  14   1.0000     -34.019430      -925.7158
  15   1.0000     -34.019385      -925.7145
  16   1.0000     -34.019353      -925.7137
  17   1.0000     -34.019310      -925.7125
  18   1.0000     -34.019038      -925.7051
  19   1.0000     -34.018966      -925.7031
  20   1.0000      -4.583249      -124.7166
  21   1.0000      -4.582969      -124.7089
  22   1.0000      -4.558943      -124.0552
  23   1.0000      -4.558641      -124.0469
  24   1.0000      -3.097734       -84.2936
  25   1.0000      -3.095430       -84.2309
  26   1.0000      -3.094767       -84.2129
  27   1.0000      -3.094198       -84.1974
  28   1.0000      -3.091722       -84.1300
  29   1.0000      -3.091476       -84.1233
  30   1.0000      -3.073573       -83.6362
  31   1.0000      -3.071997       -83.5933
  32   1.0000      -3.069657       -83.5296
  33   1.0000      -3.069202       -83.5172
  34   1.0000      -3.068944       -83.5102
  35   1.0000      -3.068318       -83.4932
  36   1.0000      -0.750279       -20.4161
  37   1.0000      -0.698882       -19.0176
  38   1.0000      -0.664279       -18.0759
  39   1.0000      -0.662396       -18.0247
  40   1.0000      -0.654907       -17.8209
  41   1.0000      -0.646467       -17.5913
  42   1.0000      -0.643764       -17.5177
  43   1.0000      -0.642569       -17.4852
  44   1.0000      -0.636386       -17.3169
  45   1.0000      -0.632391       -17.2082
  46   1.0000      -0.628164       -17.0932
  47   1.0000      -0.628142       -17.0926
  48   1.0000      -0.620136       -16.8747
  49   1.0000      -0.618616       -16.8334
  50   1.0000      -0.614300       -16.7160
  51   1.0000      -0.609670       -16.5900
  52   1.0000      -0.609460       -16.5842
  53   1.0000      -0.606086       -16.4924
  54   1.0000      -0.605668       -16.4811
  55   1.0000      -0.602814       -16.4034
  56   1.0000      -0.596705       -16.2372
  57   0.0000      -0.553110       -15.0509
  58   0.0000      -0.492384       -13.3985
  59   0.0000      -0.488207       -13.2848
  60   0.0000      -0.417831       -11.3698
  61   0.0000      -0.376159       -10.2358

MULLIKEN ATOMIC CHARGES AND SPIN POPULATIONS
--------------------------------------------
   0 Cu:    0.343767    0.215229
   1 Cu:    0.343601    0.217215
   2 Cu:    0.346336    0.154565
   3 Cu:    0.345857    0.154385
   4 H :    0.620439    0.258607
Sum of atomic charges         :    2.0000000

LOEWDIN ATOMIC CHARGES AND SPIN POPULATIONS
-------------------------------------------
   0 Cu:    0.513809    0.128185
   1 Cu:    0.514032    0.127558
   2 Cu:    0.489342    0.300073
   3 Cu:    0.488899    0.299980
   4 H :   -0.006083    0.144204

  Mayer bond orders larger than 0.100000
B(  0-Cu,  1-Cu) :   0.7829 B(  0-Cu,  2-Cu) :   0.3004 B(  0-Cu,  3-Cu) :   0.3004
B(  1-Cu,  2-Cu) :   0.2980 B(  1-Cu,  3-Cu) :   0.2988 B(  2-Cu,  3-Cu) :   0.8509

Dispersion correction           -0.009642597
FINAL SINGLE POINT ENERGY     -6562.217386919742

DIPOLE MOMENT
-------------
                                X             Y             Z
Electronic contribution:     -2.20741       0.00274      -0.01044
Nuclear contribution   :      2.08414      -0.00162       0.00923
                        -----------------------------------------
Total Dipole Moment    :     -0.12327       0.00113      -0.00121
                        -----------------------------------------
Magnitude (a.u.)       :      0.12328
Magnitude (Debye)      :      0.31335

Rotational constants in cm-1:     0.047295     0.040918     0.040701
Rotational constants in MHz :  1417.862725  1226.705268  1220.194326

                             ****ORCA TERMINATED NORMALLY****
TOTAL RUN TIME: 0 days 0 hours 0 minutes 5 seconds 143 msec
