                         Program Version 4.2.0 -  RELEASE  -
|  1> #
|  2> # Cu04C2 TPSS-D3BJ/Def2-TZVPPD
|  3> #
|  4> ! tpss d3bj def2-tzvppd def2/j grid4 nofinalgrid
|  5>
|  6> *xyz 2 1
|  7> Cu      -0.000001   -0.000007    1.488630
|  8> Cu       0.000001   -1.403449   -0.496203
|  9> Cu       1.215485    0.701727   -0.496214
| 10> Cu      -1.215485    0.701729   -0.496213
| 11> *
| 12>
| 13> %maxcore 5000
| 14>
| 15> %pal
| 16> nprocs = 24
| 17> end
| 18>
| 19>
| 20>                          ****END OF INPUT****

CARTESIAN COORDINATES (ANGSTROEM)
---------------------------------
  Cu    -0.000001   -0.000007    1.488630
  Cu     0.000001   -1.403449   -0.496203
  Cu     1.215485    0.701727   -0.496214
  Cu    -1.215485    0.701729   -0.496213

 Total Charge           Charge          ....    2
 Multiplicity           Mult            ....    1
 Number of Electrons    NEL             ....  114
 Basis Dimension        Dim             ....  268

ORBITAL ENERGIES
----------------

  NO   OCC          E(Eh)            E(eV)
   0   2.0000    -322.510460     -8775.9558
   1   2.0000    -322.510454     -8775.9556
   2   2.0000    -322.510445     -8775.9554
   3   2.0000    -322.510439     -8775.9552
   4   2.0000     -38.799234     -1055.7808
   5   2.0000     -38.799225     -1055.7806
   6   2.0000     -38.799219     -1055.7804
   7   2.0000     -38.799170     -1055.7791
   8   2.0000     -34.018284      -925.6846
   9   2.0000     -34.018282      -925.6845
  10   2.0000     -34.018281      -925.6845
  11   2.0000     -34.018276      -925.6843
  12   2.0000     -34.018274      -925.6843
  13   2.0000     -34.018268      -925.6841
  14   2.0000     -34.018268      -925.6841
  15   2.0000     -34.018262      -925.6840
  16   2.0000     -34.018260      -925.6839
  17   2.0000     -34.018260      -925.6839
  18   2.0000     -34.018258      -925.6838
  19   2.0000     -34.018256      -925.6838
  20   2.0000      -4.558786      -124.0509
  21   2.0000      -4.558401      -124.0404
  22   2.0000      -4.558391      -124.0401
  23   2.0000      -4.558388      -124.0400
  24   2.0000      -3.074715       -83.6673
  25   2.0000      -3.072189       -83.5985
  26   2.0000      -3.072178       -83.5982
  27   2.0000      -3.072174       -83.5981
  28   2.0000      -3.069279       -83.5193
  29   2.0000      -3.069276       -83.5192
  30   2.0000      -3.068929       -83.5098
  31   2.0000      -3.068926       -83.5097
  32   2.0000      -3.068923       -83.5096
  33   2.0000      -3.068213       -83.4903
  34   2.0000      -3.068213       -83.4903
  35   2.0000      -3.068207       -83.4902
  36   2.0000      -0.706407       -19.2223
  37   2.0000      -0.650368       -17.6974
  38   2.0000      -0.650363       -17.6973
  39   2.0000      -0.650343       -17.6967
  40   2.0000      -0.636330       -17.3154
  41   2.0000      -0.636320       -17.3152
  42   2.0000      -0.630312       -17.1517
  43   2.0000      -0.626446       -17.0465
  44   2.0000      -0.626442       -17.0464
  45   2.0000      -0.626415       -17.0456
  46   2.0000      -0.607496       -16.5308
  47   2.0000      -0.607468       -16.5300
  48   2.0000      -0.607442       -16.5293
  49   2.0000      -0.606031       -16.4910
  50   2.0000      -0.606013       -16.4904
  51   2.0000      -0.606007       -16.4903
  52   2.0000      -0.605919       -16.4879
  53   2.0000      -0.605906       -16.4876
  54   2.0000      -0.593972       -16.1628
  55   2.0000      -0.593959       -16.1625
  56   2.0000      -0.593945       -16.1621
  57   0.0000      -0.489263       -13.3135
  58   0.0000      -0.489262       -13.3135
  59   0.0000      -0.489257       -13.3134
  60   0.0000      -0.373978       -10.1765
  61   0.0000      -0.355146        -9.6640

MULLIKEN ATOMIC CHARGES
-----------------------
   0 Cu:    0.500100
   1 Cu:    0.499983
   2 Cu:    0.499957
   3 Cu:    0.499960
Sum of atomic charges:    2.0000000

LOEWDIN ATOMIC CHARGES
----------------------
   0 Cu:    0.500005
   1 Cu:    0.500010
   2 Cu:    0.499992
   3 Cu:    0.499993

  Mayer bond orders larger than 0.100000
B(  0-Cu,  1-Cu) :   0.4358 B(  0-Cu,  2-Cu) :   0.4358 B(  0-Cu,  3-Cu) :   0.4357
B(  1-Cu,  2-Cu) :   0.4358 B(  1-Cu,  3-Cu) :   0.4358 B(  2-Cu,  3-Cu) :   0.4357

Dispersion correction           -0.008225135
FINAL SINGLE POINT ENERGY     -6561.649986286847

DIPOLE MOMENT
-------------
                                X             Y             Z
Electronic contribution:     -0.00000      -0.00008      -0.00005
Nuclear contribution   :      0.00000       0.00000      -0.00000
                        -----------------------------------------
Total Dipole Moment    :     -0.00000      -0.00008      -0.00005
                        -----------------------------------------
Magnitude (a.u.)       :      0.00009
Magnitude (Debye)      :      0.00024

Rotational constants in cm-1:     0.044890     0.044889     0.044888
Rotational constants in MHz :  1345.776498  1345.751239  1345.708462

                             ****ORCA TERMINATED NORMALLY****
TOTAL RUN TIME: 0 days 0 hours 0 minutes 4 seconds 173 msec
