                         Program Version 4.2.0 -  RELEASE  -
|  1> #
|  2> # Cu04N0 TPSS-D3BJ/Def2-TZVPPD
|  3> #
|  4> ! tpss d3bj def2-tzvppd def2/j grid4 nofinalgrid
|  5>
|  6> *xyz 0 1
|  7> Cu      -0.387876   -0.085256    2.052405
|  8> Cu       1.110029    0.096858    0.214111
|  9> Cu       0.386859    0.085217   -2.052443
| 10> Cu      -1.109011   -0.096818   -0.214073
| 11> *
| 12>
| 13> %maxcore 5000
| 14>
| 15> %pal
| 16> nprocs = 24
| 17> end
| 18>
| 19>
| 20>                          ****END OF INPUT****

CARTESIAN COORDINATES (ANGSTROEM)
---------------------------------
  Cu    -0.387876   -0.085256    2.052405
  Cu     1.110029    0.096858    0.214111
  Cu     0.386859    0.085217   -2.052443
  Cu    -1.109011   -0.096818   -0.214073

 Total Charge           Charge          ....    0
 Multiplicity           Mult            ....    1
 Number of Electrons    NEL             ....  116
 Basis Dimension        Dim             ....  268

ORBITAL ENERGIES
----------------

  NO   OCC          E(Eh)            E(eV)
   0   2.0000    -322.102608     -8764.8576
   1   2.0000    -322.102603     -8764.8574
   2   2.0000    -322.088736     -8764.4801
   3   2.0000    -322.088731     -8764.4799
   4   2.0000     -38.396068     -1044.8101
   5   2.0000     -38.396032     -1044.8091
   6   2.0000     -38.383028     -1044.4553
   7   2.0000     -38.383003     -1044.4546
   8   2.0000     -33.614947      -914.7092
   9   2.0000     -33.614931      -914.7088
  10   2.0000     -33.614909      -914.7082
  11   2.0000     -33.614896      -914.7078
  12   2.0000     -33.614703      -914.7026
  13   2.0000     -33.614690      -914.7022
  14   2.0000     -33.602057      -914.3584
  15   2.0000     -33.602048      -914.3582
  16   2.0000     -33.601653      -914.3475
  17   2.0000     -33.601644      -914.3472
  18   2.0000     -33.601502      -914.3434
  19   2.0000     -33.601496      -914.3432
  20   2.0000      -4.154097      -113.0387
  21   2.0000      -4.153603      -113.0253
  22   2.0000      -4.138573      -112.6163
  23   2.0000      -4.138555      -112.6158
  24   2.0000      -2.670317       -72.6630
  25   2.0000      -2.666146       -72.5495
  26   2.0000      -2.665455       -72.5307
  27   2.0000      -2.664857       -72.5144
  28   2.0000      -2.662493       -72.4501
  29   2.0000      -2.662095       -72.4393
  30   2.0000      -2.653088       -72.1942
  31   2.0000      -2.652882       -72.1886
  32   2.0000      -2.650245       -72.1168
  33   2.0000      -2.650165       -72.1146
  34   2.0000      -2.645599       -71.9904
  35   2.0000      -2.645590       -71.9902
  36   2.0000      -0.286497        -7.7960
  37   2.0000      -0.259572        -7.0633
  38   2.0000      -0.242255        -6.5921
  39   2.0000      -0.239334        -6.5126
  40   2.0000      -0.237444        -6.4612
  41   2.0000      -0.227814        -6.1991
  42   2.0000      -0.215464        -5.8631
  43   2.0000      -0.214347        -5.8327
  44   2.0000      -0.213815        -5.8182
  45   2.0000      -0.200355        -5.4519
  46   2.0000      -0.198732        -5.4078
  47   2.0000      -0.198443        -5.3999
  48   2.0000      -0.197167        -5.3652
  49   2.0000      -0.195381        -5.3166
  50   2.0000      -0.194558        -5.2942
  51   2.0000      -0.192990        -5.2515
  52   2.0000      -0.188552        -5.1308
  53   2.0000      -0.187882        -5.1125
  54   2.0000      -0.186240        -5.0679
  55   2.0000      -0.185970        -5.0605
  56   2.0000      -0.178563        -4.8589
  57   2.0000      -0.161265        -4.3882
  58   0.0000      -0.122136        -3.3235
  59   0.0000      -0.076555        -2.0832
  60   0.0000      -0.067099        -1.8259
  61   0.0000      -0.035885        -0.9765
  62   0.0000      -0.027055        -0.7362

MULLIKEN ATOMIC CHARGES
-----------------------
   0 Cu:   -0.435288
   1 Cu:    0.435044
   2 Cu:   -0.435306
   3 Cu:    0.435550
Sum of atomic charges:   -0.0000000

LOEWDIN ATOMIC CHARGES
----------------------
   0 Cu:    0.153528
   1 Cu:   -0.153249
   2 Cu:    0.153546
   3 Cu:   -0.153824

  Mayer bond orders larger than 0.100000
B(  0-Cu,  1-Cu) :   0.3196 B(  0-Cu,  2-Cu) :   0.3535 B(  0-Cu,  3-Cu) :   0.3173
B(  1-Cu,  2-Cu) :   0.3177 B(  1-Cu,  3-Cu) :   0.3805 B(  2-Cu,  3-Cu) :   0.3192

Dispersion correction           -0.007767377
FINAL SINGLE POINT ENERGY     -6562.305279813776

DIPOLE MOMENT
-------------
                                X             Y             Z
Electronic contribution:      0.00094       0.00009      -0.00009
Nuclear contribution   :      0.00000       0.00000      -0.00000
                        -----------------------------------------
Total Dipole Moment    :      0.00094       0.00009      -0.00009
                        -----------------------------------------
Magnitude (a.u.)       :      0.00094
Magnitude (Debye)      :      0.00240

Rotational constants in cm-1:     0.103116     0.030352     0.023450
Rotational constants in MHz :  3091.345194   909.942810   703.010463

                             ****ORCA TERMINATED NORMALLY****
TOTAL RUN TIME: 0 days 0 hours 0 minutes 4 seconds 882 msec
