                         Program Version 4.2.0 -  RELEASE  -
|  1> #
|  2> # NH3 TPSS-D3BJ/Def2-TZVPPD
|  3> #
|  4> ! tpss d3bj def2-tzvppd def2/j grid4 nofinalgrid
|  5>
|  6> *xyz 0 1
|  7> N       -0.000000    0.125670    0.000000
|  8> H       -0.933163   -0.293418    0.000000
|  9> H        0.466582   -0.293138    0.808252
| 10> H        0.466582   -0.293138   -0.808252
| 11> *
| 12>
| 13> %maxcore 5000
| 14>
| 15> %pal
| 16> nprocs = 24
| 17> end
| 18>
| 19>
| 20>                          ****END OF INPUT****

CARTESIAN COORDINATES (ANGSTROEM)
---------------------------------
  N     -0.000000    0.125670    0.000000
  H     -0.933163   -0.293418    0.000000
  H      0.466582   -0.293138    0.808252
  H      0.466582   -0.293138   -0.808252

 Total Charge           Charge          ....    0
 Multiplicity           Mult            ....    1
 Number of Electrons    NEL             ....   10
 Basis Dimension        Dim             ....   88

ORBITAL ENERGIES
----------------

  NO   OCC          E(Eh)            E(eV)
   0   2.0000     -14.086097      -383.3022
   1   2.0000      -0.795737       -21.6531
   2   2.0000      -0.415034       -11.2937
   3   2.0000      -0.414986       -11.2923
   4   2.0000      -0.235338        -6.4039
   5   0.0000      -0.006529        -0.1777
   6   0.0000       0.073231         1.9927
   7   0.0000       0.073234         1.9928
   8   0.0000       0.119367         3.2482
   9   0.0000       0.133567         3.6346

MULLIKEN ATOMIC CHARGES
-----------------------
   0 N :   -0.272001
   1 H :    0.090768
   2 H :    0.090616
   3 H :    0.090617
Sum of atomic charges:   -0.0000000

LOEWDIN ATOMIC CHARGES
----------------------
   0 N :    0.452672
   1 H :   -0.150873
   2 H :   -0.150899
   3 H :   -0.150899

  Mayer bond orders larger than 0.100000
B(  0-N ,  1-H ) :   1.0213 B(  0-N ,  2-H ) :   1.0215 B(  0-N ,  3-H ) :   1.0215

Dispersion correction           -0.000893618
FINAL SINGLE POINT ENERGY       -56.591463839891

DIPOLE MOMENT
-------------
                                X             Y             Z
Electronic contribution:      0.00007       0.35304      -0.00000
Nuclear contribution   :      0.00000      -0.96926       0.00000
                        -----------------------------------------
Total Dipole Moment    :      0.00007      -0.61622      -0.00000
                        -----------------------------------------
Magnitude (a.u.)       :      0.61622
Magnitude (Debye)      :      1.56631

Rotational constants in cm-1:     9.616093     9.614148     6.400903
Rotational constants in MHz : 288283.214631 288224.911301 191894.257358

                             ****ORCA TERMINATED NORMALLY****
TOTAL RUN TIME: 0 days 0 hours 0 minutes 2 seconds 608 msec
