                               Psi4 1.4.1 release

  ==> Input File <==

--------------------------------------------------------------------------
memory 144 GB

molecule {
0 1
Au       0.000000    0.000000    0.019034
H        0.000000    0.000000   -1.503691
 }

set dynamic_level 1
set basis Def2-TZVPPD
set full_hess_every 10

optimize("GAM")
frequencies("GAM")
--------------------------------------------------------------------------

    Molecular point group: c2v
  Charge       = 0
  Multiplicity = 1
  Basis Set: DEF2-TZVPPD
    Blend: DEF2-TZVPPD
  Basis Set: (DEF2-TZVPPD AUX)
    Blend: DEF2-UNIVERSAL-JKFIT
  @DF-RKS Final Energy:  -136.82928349213546
    Total Energy =                       -136.8292834921354597
    Molecular point group: c2v
  Basis Set: DEF2-TZVPPD
    Blend: DEF2-TZVPPD
  Basis Set: (DEF2-TZVPPD AUX)
    Blend: DEF2-UNIVERSAL-JKFIT
  Basis Set: DEF2-TZVPPD
    Blend: DEF2-TZVPPD
  Basis Set: (DEF2-TZVPPD AUX)
    Blend: DEF2-UNIVERSAL-JKFIT
  @DF-RKS Final Energy:  -136.82928349213543
    Total Energy =                       -136.8292834921354313
  Basis Set: DEF2-TZVPPD
    Blend: DEF2-TZVPPD
  Basis Set: (DEF2-TZVPPD AUX)
    Blend: DEF2-UNIVERSAL-JKFIT
  Basis Set: DEF2-TZVPPD
    Blend: DEF2-TZVPPD
  @DF-RKS Final Energy:  -136.82923857873413
    Total Energy =                       -136.8292385787341345
  @DF-RKS Final Energy:  -136.82932357622798
    Total Energy =                       -136.8293235762280062

  Vibration                       6
  Freq [cm^-1]                2259.1156
  Irrep                           A1
  Reduced mass [u]              1.0130
  Force const [mDyne/A]         3.0459

    Irrep   Nso     Nmo     Nalpha   Nbeta   Ndocc  Nsocc

  @DF-RKS Final Energy:  -136.82946862201132
    Total Energy =                       -136.8294686220113192

    Irrep   Nso     Nmo     Nalpha   Nbeta   Ndocc  Nsocc

  @DF-RKS Final Energy:  -136.82947153306623
    Total Energy =                       -136.8294715330662257
  **** Optimization is complete! (in 3 steps) ****
    Final optimized geometry and variables:

    Irrep   Nso     Nmo

  @DF-RKS Final Energy:  -136.82947153306628
    Total Energy =                       -136.8294715330662825

     Irrep 1: 1
     Irrep 2: 0
     Irrep 3: 0
     Irrep 4: 0

      Irrep 1: 2
      Irrep 2: 0
      Irrep 3: 0
      Irrep 4: 0

    Irrep   Nso     Nmo

  @DF-RKS Final Energy:  -136.82947153306623
    Total Energy =                       -136.8294715330662257
  Basis Set: (DEF2-TZVPPD AUX)
    Blend: DEF2-UNIVERSAL-JKFIT
  Basis Set: DEF2-TZVPPD
    Blend: DEF2-TZVPPD
  Basis Set: (DEF2-TZVPPD AUX)
    Blend: DEF2-UNIVERSAL-JKFIT

    Irrep   Nso     Nmo

  @DF-RKS Final Energy:  -136.82946187568254
    Total Energy =                       -136.8294618756825400
  Basis Set: DEF2-TZVPPD
    Blend: DEF2-TZVPPD
  Basis Set: (DEF2-TZVPPD AUX)
    Blend: DEF2-UNIVERSAL-JKFIT
    Molecular point group: c2v
  Charge       = 0
  Multiplicity = 1
  Basis Set: DEF2-TZVPPD
    Blend: DEF2-TZVPPD
  Basis Set: (DEF2-TZVPPD AUX)
    Blend: DEF2-UNIVERSAL-JKFIT

    Irrep   Nso     Nmo

    Orbital Energies [Eh]
    ---------------------

    Doubly Occupied:

       1A1    -4.020726     2A1    -2.252176     1B1    -2.230621
       1B2    -2.230621     3A1    -0.383695     2B1    -0.283791
       2B2    -0.283791     4A1    -0.264867     1A2    -0.264867
       5A1    -0.230582

  @DF-RKS Final Energy:  -136.82947681685965

   => Energetics <=

    Nuclear Repulsion Energy =              6.5055949022792712
    One-Electron Energy =                -252.3266006122259455
    Two-Electron Energy =                 122.7219443459086108
    DFT Exchange-Correlation Energy =     -13.7304154528215960
    Empirical Dispersion Energy =           0.0000000000000000
    VV10 Nonlocal Energy =                  0.0000000000000000
    Total Energy =                       -136.8294768168596534

  Dipole Moment: [D]
     X:     0.0000      Y:     0.0000      Z:     1.3026     Total:     1.3026

    Molecular point group: c2v

    Geometry (in Angstrom), charge = 0, multiplicity = 1:

       Center              X                  Y                   Z               Mass
    ------------   -----------------  -----------------  -----------------  -----------------
         AU           0.000000000000     0.000000000000     0.007867628345   196.966568790000
         H            0.000000000000     0.000000000000    -1.537627772730     1.007825032230

  Basis Set: DEF2-TZVPPD
    Blend: DEF2-TZVPPD
  Basis Set: (DEF2-TZVPPD AUX)
    Blend: DEF2-UNIVERSAL-JKFIT

  -Total Gradient:
     Atom            X                  Y                   Z
    ------   -----------------  -----------------  -----------------
       1        0.000000000000    -0.000000000000     0.002327895132
       2        0.000000000000     0.000000000000     0.000620873563

  Vibration                       6
  Freq [cm^-1]                2149.8367
  Irrep                           A1
  Reduced mass [u]              1.0130
  Force const [mDyne/A]         2.7584

  ==> Thermochemistry Components <==

  Entropy, S
    Electronic S            0.000 [cal/(mol K)]        0.000 [J/(mol K)]       0.00000000 [mEh/K] (multiplicity = 1)
    Translational S        41.754 [cal/(mol K)]      174.698 [J/(mol K)]       0.06653889 [mEh/K] (mol. weight = 197.9744 [u], P = 101325.00 [Pa])
    Rotational S            8.702 [cal/(mol K)]       36.409 [J/(mol K)]       0.01386733 [mEh/K] (symmetry no. = 1)
    Vibrational S           0.001 [cal/(mol K)]        0.003 [J/(mol K)]       0.00000112 [mEh/K]
  Total S                  50.456 [cal/(mol K)]      211.109 [J/(mol K)]       0.08040734 [mEh/K]
  Correction S              0.000 [cal/(mol K)]        0.000 [J/(mol K)]       0.00000000 [mEh/K]

  Constant volume heat capacity, Cv
    Electronic Cv           0.000 [cal/(mol K)]        0.000 [J/(mol K)]       0.00000000 [mEh/K]
    Translational Cv        2.981 [cal/(mol K)]       12.472 [J/(mol K)]       0.00475022 [mEh/K]
    Rotational Cv           1.987 [cal/(mol K)]        8.314 [J/(mol K)]       0.00316681 [mEh/K]
    Vibrational Cv          0.007 [cal/(mol K)]        0.028 [J/(mol K)]       0.00001064 [mEh/K]
  Total Cv                  4.975 [cal/(mol K)]       20.814 [J/(mol K)]       0.00792767 [mEh/K]
  Correction Cv             0.000 [cal/(mol K)]        0.000 [J/(mol K)]       0.00000000 [mEh/K]

  Constant pressure heat capacity, Cp
    Electronic Cp           0.000 [cal/(mol K)]        0.000 [J/(mol K)]       0.00000000 [mEh/K]
    Translational Cp        4.968 [cal/(mol K)]       20.786 [J/(mol K)]       0.00791703 [mEh/K]
    Rotational Cp           1.987 [cal/(mol K)]        8.314 [J/(mol K)]       0.00316681 [mEh/K]
    Vibrational Cp          0.007 [cal/(mol K)]        0.028 [J/(mol K)]       0.00001064 [mEh/K]
  Total Cp                  6.962 [cal/(mol K)]       29.129 [J/(mol K)]       0.01109448 [mEh/K]
  Correction Cp             0.000 [cal/(mol K)]        0.000 [J/(mol K)]       0.00000000 [mEh/K]

  ==> Thermochemistry Energy Analysis <==

  Raw electronic energy, E0
  Total E0, Electronic energy at well bottom at 0 [K]                 -136.82947153 [Eh]

  Zero-point energy, ZPE_vib = Sum_i nu_i / 2
    Electronic ZPE          0.000 [kcal/mol]        0.000 [kJ/mol]       0.00000000 [Eh]
    Translational ZPE       0.000 [kcal/mol]        0.000 [kJ/mol]       0.00000000 [Eh]
    Rotational ZPE          0.000 [kcal/mol]        0.000 [kJ/mol]       0.00000000 [Eh]
    Vibrational ZPE         3.073 [kcal/mol]       12.859 [kJ/mol]       0.00489769 [Eh]        1074.918 [cm^-1]
  Correction ZPE            3.073 [kcal/mol]       12.859 [kJ/mol]       0.00489769 [Eh]        1074.918 [cm^-1]
  Total ZPE, Electronic energy at 0 [K]                               -136.82457384 [Eh]

  Thermal Energy, E (includes ZPE)
    Electronic E            0.000 [kcal/mol]        0.000 [kJ/mol]       0.00000000 [Eh]
    Translational E         0.889 [kcal/mol]        3.718 [kJ/mol]       0.00141628 [Eh]
    Rotational E            0.592 [kcal/mol]        2.479 [kJ/mol]       0.00094418 [Eh]
    Vibrational E           3.074 [kcal/mol]       12.860 [kJ/mol]       0.00489799 [Eh]
  Correction E              4.555 [kcal/mol]       19.057 [kJ/mol]       0.00725846 [Eh]
  Total E, Electronic energy at  298.15 [K]                           -136.82221308 [Eh]

  Enthalpy, H_trans = E_trans + k_B * T
    Electronic H            0.000 [kcal/mol]        0.000 [kJ/mol]       0.00000000 [Eh]
    Translational H         1.481 [kcal/mol]        6.197 [kJ/mol]       0.00236046 [Eh]
    Rotational H            0.592 [kcal/mol]        2.479 [kJ/mol]       0.00094418 [Eh]
    Vibrational H           3.074 [kcal/mol]       12.860 [kJ/mol]       0.00489799 [Eh]
  Correction H              5.147 [kcal/mol]       21.536 [kJ/mol]       0.00820264 [Eh]
  Total H, Enthalpy at  298.15 [K]                                    -136.82126889 [Eh]

  Gibbs free energy, G = H - T * S
    Electronic G            0.000 [kcal/mol]        0.000 [kJ/mol]       0.00000000 [Eh]
    Translational G       -10.968 [kcal/mol]      -45.889 [kJ/mol]      -0.01747811 [Eh]
    Rotational G           -2.002 [kcal/mol]       -8.376 [kJ/mol]      -0.00319036 [Eh]
    Vibrational G           3.073 [kcal/mol]       12.859 [kJ/mol]       0.00489766 [Eh]
  Correction G             -9.896 [kcal/mol]      -41.406 [kJ/mol]      -0.01577081 [Eh]
  Total G, Free enthalpy at  298.15 [K]                               -136.84524234 [Eh]

*** Psi4 exiting successfully. Buy a developer a beer!
