                         Program Version 4.2.0 -  RELEASE  -
|  1> #
|  2> # Ag01N0 wB97X-V/Def2-TZVPPD
|  3> #
|  4> ! wb97x-v def2-tzvppd def2/jk grid4 nofinalgrid
|  5>
|  6> *xyz 0 2
|  7> Ag       0.000000    0.000000    0.000000
|  8> *
|  9>
| 10> %maxcore 5000
| 11>
| 12> %pal
| 13> nprocs = 24
| 14> end
| 15>
| 16>
| 17>                          ****END OF INPUT****

CARTESIAN COORDINATES (ANGSTROEM)
---------------------------------
  Ag     0.000000    0.000000    0.000000

 Total Charge           Charge          ....    0
 Multiplicity           Mult            ....    2
 Number of Electrons    NEL             ....   19
 Basis Dimension        Dim             ....   56

ORBITAL ENERGIES
----------------
                 SPIN UP ORBITALS
  NO   OCC          E(Eh)            E(eV)
   0   1.0000      -3.829919      -104.2174
   1   1.0000      -2.428588       -66.0852
   2   1.0000      -2.428588       -66.0852
   3   1.0000      -2.428588       -66.0852
   4   1.0000      -0.429629       -11.6908
   5   1.0000      -0.429629       -11.6908
   6   1.0000      -0.429629       -11.6908
   7   1.0000      -0.429629       -11.6908
   8   1.0000      -0.429629       -11.6908
   9   1.0000      -0.260848        -7.0980
  10   0.0000       0.043685         1.1887
  11   0.0000       0.043685         1.1887
  12   0.0000       0.043685         1.1887
  13   0.0000       0.151253         4.1158
  14   0.0000       0.269765         7.3407

                 SPIN DOWN ORBITALS
  NO   OCC          E(Eh)            E(eV)
   0   1.0000      -3.828285      -104.1729
   1   1.0000      -2.427383       -66.0525
   2   1.0000      -2.427383       -66.0525
   3   1.0000      -2.427383       -66.0525
   4   1.0000      -0.425005       -11.5650
   5   1.0000      -0.425005       -11.5650
   6   1.0000      -0.425005       -11.5650
   7   1.0000      -0.425005       -11.5650
   8   1.0000      -0.425005       -11.5650
   9   0.0000      -0.031983        -0.8703
  10   0.0000       0.072442         1.9713
  11   0.0000       0.072442         1.9713
  12   0.0000       0.072442         1.9713
  13   0.0000       0.182448         4.9647

MULLIKEN ATOMIC CHARGES AND SPIN POPULATIONS
--------------------------------------------
   0 Ag:    0.000000    1.000000
Sum of atomic charges         :    0.0000000

LOEWDIN ATOMIC CHARGES AND SPIN POPULATIONS
-------------------------------------------
   0 Ag:    0.000000    1.000000

FINAL SINGLE POINT ENERGY      -146.937122780966

DIPOLE MOMENT
-------------
                                X             Y             Z
Electronic contribution:      0.00000       0.00000      -0.00000
Nuclear contribution   :      0.00000       0.00000       0.00000
                        -----------------------------------------
Total Dipole Moment    :      0.00000       0.00000      -0.00000
                        -----------------------------------------
Magnitude (a.u.)       :      0.00000
Magnitude (Debye)      :      0.00000

Rotational constants in cm-1:     0.000000     0.000000     0.000000
Rotational constants in MHz :     0.000000     0.000000     0.000000

                             ****ORCA TERMINATED NORMALLY****
TOTAL RUN TIME: 0 days 0 hours 0 minutes 5 seconds 228 msec
