                         Program Version 4.2.0 -  RELEASE  -
|  1> #
|  2> # Ag01N0_H wB97X-V/Def2-TZVPPD
|  3> #
|  4> ! wb97x-v def2-tzvppd def2/jk grid4 nofinalgrid
|  5>
|  6> *xyz 0 1
|  7> Ag       0.000000    0.000000    0.033547
|  8> H        0.000000    0.000000   -1.576706
|  9> *
| 10>
| 11> %maxcore 5000
| 12>
| 13> %pal
| 14> nprocs = 24
| 15> end
| 16>
| 17>
| 18>                          ****END OF INPUT****

CARTESIAN COORDINATES (ANGSTROEM)
---------------------------------
  Ag     0.000000    0.000000    0.033547
  H      0.000000    0.000000   -1.576706

 Total Charge           Charge          ....    0
 Multiplicity           Mult            ....    1
 Number of Electrons    NEL             ....   20
 Basis Dimension        Dim             ....   73

ORBITAL ENERGIES
----------------

  NO   OCC          E(Eh)            E(eV)
   0   2.0000      -3.851299      -104.7992
   1   2.0000      -2.453689       -66.7683
   2   2.0000      -2.446949       -66.5849
   3   2.0000      -2.446949       -66.5849
   4   2.0000      -0.491671       -13.3790
   5   2.0000      -0.448432       -12.2024
   6   2.0000      -0.448432       -12.2024
   7   2.0000      -0.441410       -12.0114
   8   2.0000      -0.441410       -12.0114
   9   2.0000      -0.333052        -9.0628
  10   0.0000      -0.011254        -0.3062
  11   0.0000       0.051244         1.3944
  12   0.0000       0.051244         1.3944
  13   0.0000       0.124842         3.3971
  14   0.0000       0.157414         4.2834

MULLIKEN ATOMIC CHARGES
-----------------------
   0 Ag:    0.049916
   1 H :   -0.049916
Sum of atomic charges:    0.0000000

LOEWDIN ATOMIC CHARGES
----------------------
   0 Ag:    0.323498
   1 H :   -0.323498

  Mayer bond orders larger than 0.100000
B(  0-Ag,  1-H ) :   1.0595

FINAL SINGLE POINT ENERGY      -147.525944568951

DIPOLE MOMENT
-------------
                                X             Y             Z
Electronic contribution:     -0.00000       0.00000       3.79342
Nuclear contribution   :      0.00000       0.00000      -2.47950
                        -----------------------------------------
Total Dipole Moment    :     -0.00000       0.00000       1.31392
                        -----------------------------------------
Magnitude (a.u.)       :      1.31392
Magnitude (Debye)      :      3.33971

Rotational constants in cm-1:     0.000000     6.510099     6.510099
Rotational constants in MHz :     0.000000 195167.857171 195167.857171

                             ****ORCA TERMINATED NORMALLY****
TOTAL RUN TIME: 0 days 0 hours 0 minutes 5 seconds 210 msec
