                         Program Version 4.2.0 -  RELEASE  -
|  1> #
|  2> # Ag01N0_F wB97X-V/Def2-TZVPPD
|  3> #
|  4> ! wb97x-v def2-tzvppd def2/jk grid4 nofinalgrid
|  5>
|  6> *xyz 0 1
|  7> Ag       0.000000    0.000000    0.317712
|  8> F        0.000000    0.000000   -1.659163
|  9> *
| 10>
| 11> %maxcore 5000
| 12>
| 13> %pal
| 14> nprocs = 24
| 15> end
| 16>
| 17>
| 18>                          ****END OF INPUT****

CARTESIAN COORDINATES (ANGSTROEM)
---------------------------------
  Ag     0.000000    0.000000    0.317712
  F      0.000000    0.000000   -1.659163

 Total Charge           Charge          ....    0
 Multiplicity           Mult            ....    1
 Number of Electrons    NEL             ....   28
 Basis Dimension        Dim             ....   96

ORBITAL ENERGIES
----------------

  NO   OCC          E(Eh)            E(eV)
   0   2.0000     -24.629390      -670.1998
   1   2.0000      -3.870440      -105.3200
   2   2.0000      -2.469736       -67.2049
   3   2.0000      -2.469736       -67.2049
   4   2.0000      -2.469671       -67.2032
   5   2.0000      -1.153421       -31.3862
   6   2.0000      -0.508155       -13.8276
   7   2.0000      -0.484428       -13.1820
   8   2.0000      -0.484428       -13.1820
   9   2.0000      -0.467703       -12.7269
  10   2.0000      -0.467703       -12.7269
  11   2.0000      -0.392773       -10.6879
  12   2.0000      -0.392773       -10.6879
  13   2.0000      -0.385638       -10.4938
  14   0.0000      -0.046350        -1.2612
  15   0.0000       0.051923         1.4129
  16   0.0000       0.051923         1.4129
  17   0.0000       0.086477         2.3532
  18   0.0000       0.141004         3.8369

MULLIKEN ATOMIC CHARGES
-----------------------
   0 Ag:    0.723359
   1 F :   -0.723359
Sum of atomic charges:    0.0000000

LOEWDIN ATOMIC CHARGES
----------------------
   0 Ag:    0.727087
   1 F :   -0.727087

  Mayer bond orders larger than 0.100000
B(  0-Ag,  1-F ) :   0.4502

FINAL SINGLE POINT ENERGY      -246.804169972299

DIPOLE MOMENT
-------------
                                X             Y             Z
Electronic contribution:      0.00000       0.00000      20.34351
Nuclear contribution   :      0.00000       0.00000     -17.95816
                        -----------------------------------------
Total Dipole Moment    :      0.00000       0.00000       2.38535
                        -----------------------------------------
Magnitude (a.u.)       :      2.38535
Magnitude (Debye)      :      6.06308

Rotational constants in cm-1:     0.000000     0.267044     0.267044
Rotational constants in MHz :     0.000000  8005.762772  8005.762772

                             ****ORCA TERMINATED NORMALLY****
TOTAL RUN TIME: 0 days 0 hours 0 minutes 6 seconds 74 msec
