                         Program Version 4.2.0 -  RELEASE  -
|  1> #
|  2> # Ag02N0 wB97X-V/Def2-TZVPPD
|  3> #
|  4> ! wb97x-v def2-tzvppd def2/jk grid4 nofinalgrid
|  5>
|  6> *xyz 0 1
|  7> Ag       0.000000    0.000000    1.261821
|  8> Ag       0.000000    0.000000   -1.261821
|  9> *
| 10>
| 11> %maxcore 5000
| 12>
| 13> %pal
| 14> nprocs = 24
| 15> end
| 16>
| 17>
| 18>                          ****END OF INPUT****

CARTESIAN COORDINATES (ANGSTROEM)
---------------------------------
  Ag     0.000000    0.000000    1.261821
  Ag     0.000000    0.000000   -1.261821

 Total Charge           Charge          ....    0
 Multiplicity           Mult            ....    1
 Number of Electrons    NEL             ....   38
 Basis Dimension        Dim             ....  112

ORBITAL ENERGIES
----------------

  NO   OCC          E(Eh)            E(eV)
   0   2.0000      -3.822582      -104.0177
   1   2.0000      -3.821938      -104.0002
   2   2.0000      -2.426595       -66.0310
   3   2.0000      -2.419902       -65.8489
   4   2.0000      -2.419902       -65.8489
   5   2.0000      -2.419291       -65.8323
   6   2.0000      -2.419291       -65.8323
   7   2.0000      -2.419159       -65.8287
   8   2.0000      -0.461004       -12.5446
   9   2.0000      -0.443027       -12.0554
  10   2.0000      -0.443027       -12.0554
  11   2.0000      -0.421011       -11.4563
  12   2.0000      -0.421008       -11.4562
  13   2.0000      -0.412601       -11.2274
  14   2.0000      -0.412598       -11.2274
  15   2.0000      -0.398932       -10.8555
  16   2.0000      -0.398932       -10.8555
  17   2.0000      -0.391080       -10.6418
  18   2.0000      -0.271175        -7.3791
  19   0.0000      -0.021092        -0.5740
  20   0.0000       0.038187         1.0391
  21   0.0000       0.038187         1.0391
  22   0.0000       0.059891         1.6297
  23   0.0000       0.099425         2.7055

MULLIKEN ATOMIC CHARGES
-----------------------
   0 Ag:   -0.000001
   1 Ag:    0.000001
Sum of atomic charges:    0.0000000

LOEWDIN ATOMIC CHARGES
----------------------
   0 Ag:   -0.000000
   1 Ag:    0.000000

  Mayer bond orders larger than 0.100000
B(  0-Ag,  1-Ag) :   1.0305

FINAL SINGLE POINT ENERGY      -293.930235462926

DIPOLE MOMENT
-------------
                                X             Y             Z
Electronic contribution:     -0.00000       0.00000      -0.00000
Nuclear contribution   :      0.00000       0.00000       0.00000
                        -----------------------------------------
Total Dipole Moment    :     -0.00000       0.00000      -0.00000
                        -----------------------------------------
Magnitude (a.u.)       :      0.00000
Magnitude (Debye)      :      0.00000

Rotational constants in cm-1:     0.000000     0.049076     0.049076
Rotational constants in MHz :     0.000000  1471.266775  1471.266775

                             ****ORCA TERMINATED NORMALLY****
TOTAL RUN TIME: 0 days 0 hours 0 minutes 6 seconds 450 msec
