                         Program Version 4.2.0 -  RELEASE  -
|  1> #
|  2> # Ag03C1_D3H wB97X-V/Def2-TZVPPD
|  3> #
|  4> ! wb97x-v def2-tzvppd def2/jk grid4 nofinalgrid
|  5>
|  6> *xyz 1 1
|  7> Ag       0.000000    1.529877    0.000000
|  8> Ag       1.324912   -0.764938    0.000000
|  9> Ag      -1.324912   -0.764938    0.000000
| 10> *
| 11>
| 12> %maxcore 5000
| 13>
| 14> %pal
| 15> nprocs = 24
| 16> end
| 17>
| 18>
| 19>                          ****END OF INPUT****

CARTESIAN COORDINATES (ANGSTROEM)
---------------------------------
  Ag     0.000000    1.529877    0.000000
  Ag     1.324912   -0.764938    0.000000
  Ag    -1.324912   -0.764938    0.000000

 Total Charge           Charge          ....    1
 Multiplicity           Mult            ....    1
 Number of Electrons    NEL             ....   56
 Basis Dimension        Dim             ....  168

ORBITAL ENERGIES
----------------

  NO   OCC          E(Eh)            E(eV)
   0   2.0000      -4.028133      -109.6111
   1   2.0000      -4.027638      -109.5976
   2   2.0000      -4.027636      -109.5975
   3   2.0000      -2.631283       -71.6009
   4   2.0000      -2.628796       -71.5332
   5   2.0000      -2.628792       -71.5331
   6   2.0000      -2.625782       -71.4512
   7   2.0000      -2.625128       -71.4334
   8   2.0000      -2.625122       -71.4332
   9   2.0000      -2.624948       -71.4285
  10   2.0000      -2.624431       -71.4144
  11   2.0000      -2.624428       -71.4143
  12   2.0000      -0.675399       -18.3785
  13   2.0000      -0.657785       -17.8992
  14   2.0000      -0.657783       -17.8992
  15   2.0000      -0.652661       -17.7598
  16   2.0000      -0.637404       -17.3446
  17   2.0000      -0.633939       -17.2504
  18   2.0000      -0.633930       -17.2501
  19   2.0000      -0.613026       -16.6813
  20   2.0000      -0.613026       -16.6813
  21   2.0000      -0.609623       -16.5887
  22   2.0000      -0.605578       -16.4786
  23   2.0000      -0.605556       -16.4780
  24   2.0000      -0.604778       -16.4569
  25   2.0000      -0.604765       -16.4565
  26   2.0000      -0.583916       -15.8892
  27   2.0000      -0.496521       -13.5110
  28   0.0000      -0.191753        -5.2179
  29   0.0000      -0.191752        -5.2178
  30   0.0000      -0.132871        -3.6156
  31   0.0000      -0.099863        -2.7174
  32   0.0000      -0.082690        -2.2501

MULLIKEN ATOMIC CHARGES
-----------------------
   0 Ag:    0.333353
   1 Ag:    0.333322
   2 Ag:    0.333325
Sum of atomic charges:    1.0000000

LOEWDIN ATOMIC CHARGES
----------------------
   0 Ag:    0.333340
   1 Ag:    0.333330
   2 Ag:    0.333330

  Mayer bond orders larger than 0.100000
B(  0-Ag,  1-Ag) :   0.5255 B(  0-Ag,  2-Ag) :   0.5255 B(  1-Ag,  2-Ag) :   0.5254

FINAL SINGLE POINT ENERGY      -440.700949929807

DIPOLE MOMENT
-------------
                                X             Y             Z
Electronic contribution:     -0.00000       0.00001      -0.00000
Nuclear contribution   :      0.00000       0.00000       0.00000
                        -----------------------------------------
Total Dipole Moment    :     -0.00000       0.00001      -0.00000
                        -----------------------------------------
Magnitude (a.u.)       :      0.00001
Magnitude (Debye)      :      0.00003

Rotational constants in cm-1:     0.044514     0.044514     0.022257
Rotational constants in MHz :  1334.482437  1334.482320   667.241189

                             ****ORCA TERMINATED NORMALLY****
TOTAL RUN TIME: 0 days 0 hours 0 minutes 10 seconds 518 msec
