                         Program Version 4.2.0 -  RELEASE  -
|  1> #
|  2> # Ag03C1_LIN wB97X-V/Def2-TZVPPD
|  3> #
|  4> ! wb97x-v def2-tzvppd def2/jk grid4 nofinalgrid
|  5>
|  6> *xyz 1 1
|  7> Ag       0.000000    0.000000    0.000000
|  8> Ag       0.000000    0.000000    2.629319
|  9> Ag       0.000000    0.000000   -2.629319
| 10> *
| 11>
| 12> %maxcore 5000
| 13>
| 14> %pal
| 15> nprocs = 24
| 16> end
| 17>
| 18>
| 19>                          ****END OF INPUT****

CARTESIAN COORDINATES (ANGSTROEM)
---------------------------------
  Ag     0.000000    0.000000    0.000000
  Ag     0.000000    0.000000    2.629319
  Ag     0.000000    0.000000   -2.629319

 Total Charge           Charge          ....    1
 Multiplicity           Mult            ....    1
 Number of Electrons    NEL             ....   56
 Basis Dimension        Dim             ....  168

ORBITAL ENERGIES
----------------

  NO   OCC          E(Eh)            E(eV)
   0   2.0000      -4.036812      -109.8472
   1   2.0000      -4.036812      -109.8472
   2   2.0000      -3.985899      -108.4618
   3   2.0000      -2.637952       -71.7823
   4   2.0000      -2.637720       -71.7760
   5   2.0000      -2.635813       -71.7241
   6   2.0000      -2.635813       -71.7241
   7   2.0000      -2.635788       -71.7234
   8   2.0000      -2.635788       -71.7234
   9   2.0000      -2.588923       -70.4482
  10   2.0000      -2.581415       -70.2439
  11   2.0000      -2.581415       -70.2439
  12   2.0000      -0.667680       -18.1685
  13   2.0000      -0.645771       -17.5723
  14   2.0000      -0.645771       -17.5723
  15   2.0000      -0.639198       -17.3935
  16   2.0000      -0.636805       -17.3283
  17   2.0000      -0.636805       -17.3283
  18   2.0000      -0.633484       -17.2380
  19   2.0000      -0.633483       -17.2379
  20   2.0000      -0.633143       -17.2287
  21   2.0000      -0.633141       -17.2287
  22   2.0000      -0.576067       -15.6756
  23   2.0000      -0.576066       -15.6756
  24   2.0000      -0.575273       -15.6540
  25   2.0000      -0.575273       -15.6540
  26   2.0000      -0.569243       -15.4899
  27   2.0000      -0.442357       -12.0372
  28   0.0000      -0.250921        -6.8279
  29   0.0000      -0.149892        -4.0788
  30   0.0000      -0.116952        -3.1824
  31   0.0000      -0.116952        -3.1824
  32   0.0000      -0.084088        -2.2882

MULLIKEN ATOMIC CHARGES
-----------------------
   0 Ag:   -0.165162
   1 Ag:    0.582582
   2 Ag:    0.582580
Sum of atomic charges:    1.0000000

LOEWDIN ATOMIC CHARGES
----------------------
   0 Ag:    0.096805
   1 Ag:    0.451598
   2 Ag:    0.451598

  Mayer bond orders larger than 0.100000
B(  0-Ag,  1-Ag) :   0.5475 B(  0-Ag,  2-Ag) :   0.5475 B(  1-Ag,  2-Ag) :   0.1961

FINAL SINGLE POINT ENERGY      -440.638751027364

DIPOLE MOMENT
-------------
                                X             Y             Z
Electronic contribution:      0.00000       0.00000      -0.00000
Nuclear contribution   :      0.00000       0.00000       0.00000
                        -----------------------------------------
Total Dipole Moment    :      0.00000       0.00000      -0.00000
                        -----------------------------------------
Magnitude (a.u.)       :      0.00000
Magnitude (Debye)      :      0.00000

Rotational constants in cm-1:     0.000000     0.011303     0.011303
Rotational constants in MHz :     0.000000   338.844445   338.844445

                             ****ORCA TERMINATED NORMALLY****
TOTAL RUN TIME: 0 days 0 hours 0 minutes 9 seconds 680 msec
