                         Program Version 4.2.0 -  RELEASE  -
|  1> #
|  2> # Ag03N0_D3H wB97X-V/Def2-TZVPPD
|  3> #
|  4> ! wb97x-v def2-tzvppd def2/jk grid4 nofinalgrid
|  5>
|  6> *xyz 0 2
|  7> Ag       0.000000    1.533951   -0.000000
|  8> Ag       1.328441   -0.766976    0.000000
|  9> Ag      -1.328441   -0.766976   -0.000000
| 10> *
| 11>
| 12> %maxcore 5000
| 13>
| 14> %pal
| 15> nprocs = 24
| 16> end
| 17>
| 18>
| 19>                          ****END OF INPUT****

CARTESIAN COORDINATES (ANGSTROEM)
---------------------------------
  Ag     0.000000    1.533951   -0.000000
  Ag     1.328441   -0.766976    0.000000
  Ag    -1.328441   -0.766976   -0.000000

 Total Charge           Charge          ....    0
 Multiplicity           Mult            ....    2
 Number of Electrons    NEL             ....   57
 Basis Dimension        Dim             ....  168

ORBITAL ENERGIES
----------------
                 SPIN UP ORBITALS
  NO   OCC          E(Eh)            E(eV)
   0   1.0000      -3.844019      -104.6011
   1   1.0000      -3.843699      -104.5924
   2   1.0000      -3.822017      -104.0024
   3   1.0000      -2.446255       -66.5660
   4   1.0000      -2.442436       -66.4621
   5   1.0000      -2.442170       -66.4548
   6   1.0000      -2.441266       -66.4302
   7   1.0000      -2.441005       -66.4231
   8   1.0000      -2.440916       -66.4207
   9   1.0000      -2.420759       -65.8722
  10   1.0000      -2.420366       -65.8615
  11   1.0000      -2.417727       -65.7897
  12   1.0000      -0.486208       -13.2304
  13   1.0000      -0.471639       -12.8340
  14   1.0000      -0.464365       -12.6360
  15   1.0000      -0.462759       -12.5923
  16   1.0000      -0.449242       -12.2245
  17   1.0000      -0.447918       -12.1885
  18   1.0000      -0.442169       -12.0320
  19   1.0000      -0.428238       -11.6530
  20   1.0000      -0.424172       -11.5423
  21   1.0000      -0.421131       -11.4596
  22   1.0000      -0.411930       -11.2092
  23   1.0000      -0.410245       -11.1633
  24   1.0000      -0.406659       -11.0657
  25   1.0000      -0.405864       -11.0441
  26   1.0000      -0.391956       -10.6657
  27   1.0000      -0.328828        -8.9479
  28   1.0000      -0.194247        -5.2857
  29   0.0000      -0.040229        -1.0947
  30   0.0000       0.018460         0.5023
  31   0.0000       0.033850         0.9211
  32   0.0000       0.054420         1.4808
  33   0.0000       0.055950         1.5225

                 SPIN DOWN ORBITALS
  NO   OCC          E(Eh)            E(eV)
   0   1.0000      -3.843578      -104.5891
   1   1.0000      -3.843258      -104.5804
   2   1.0000      -3.820655      -103.9653
   3   1.0000      -2.445852       -66.5550
   4   1.0000      -2.442165       -66.4547
   5   1.0000      -2.441522       -66.4372
   6   1.0000      -2.441030       -66.4238
   7   1.0000      -2.440700       -66.4148
   8   1.0000      -2.440333       -66.4048
   9   1.0000      -2.419701       -65.8434
  10   1.0000      -2.419047       -65.8256
  11   1.0000      -2.416597       -65.7590
  12   1.0000      -0.484943       -13.1960
  13   1.0000      -0.469910       -12.7869
  14   1.0000      -0.463913       -12.6237
  15   1.0000      -0.460289       -12.5251
  16   1.0000      -0.447191       -12.1687
  17   1.0000      -0.446707       -12.1555
  18   1.0000      -0.441062       -12.0019
  19   1.0000      -0.427384       -11.6297
  20   1.0000      -0.423945       -11.5361
  21   1.0000      -0.420949       -11.4546
  22   1.0000      -0.409403       -11.1404
  23   1.0000      -0.408014       -11.1026
  24   1.0000      -0.403809       -10.9882
  25   1.0000      -0.402509       -10.9528
  26   1.0000      -0.388201       -10.5635
  27   1.0000      -0.311994        -8.4898
  28   0.0000      -0.033978        -0.9246
  29   0.0000      -0.015022        -0.4088
  30   0.0000       0.022247         0.6054
  31   0.0000       0.047546         1.2938
  32   0.0000       0.071678         1.9505

MULLIKEN ATOMIC CHARGES AND SPIN POPULATIONS
--------------------------------------------
   0 Ag:   -0.136755    0.593629
   1 Ag:    0.068375    0.203191
   2 Ag:    0.068380    0.203181
Sum of atomic charges         :    0.0000000

LOEWDIN ATOMIC CHARGES AND SPIN POPULATIONS
-------------------------------------------
   0 Ag:   -0.086463    0.472077
   1 Ag:    0.043230    0.263964
   2 Ag:    0.043233    0.263959

  Mayer bond orders larger than 0.100000
B(  0-Ag,  1-Ag) :   0.4829 B(  0-Ag,  2-Ag) :   0.4829 B(  1-Ag,  2-Ag) :   0.7493

FINAL SINGLE POINT ENERGY      -440.892275975585

DIPOLE MOMENT
-------------
                                X             Y             Z
Electronic contribution:     -0.00001      -0.50118       0.00000
Nuclear contribution   :      0.00000       0.00000       0.00000
                        -----------------------------------------
Total Dipole Moment    :     -0.00001      -0.50118       0.00000
                        -----------------------------------------
Magnitude (a.u.)       :      0.50118
Magnitude (Debye)      :      1.27390

Rotational constants in cm-1:     0.044277     0.044277     0.022139
Rotational constants in MHz :  1327.402110  1327.401756   663.700966

                             ****ORCA TERMINATED NORMALLY****
TOTAL RUN TIME: 0 days 0 hours 0 minutes 10 seconds 336 msec
