                         Program Version 4.2.0 -  RELEASE  -
|  1> #
|  2> # Ag03N0_LIN wB97X-V/Def2-TZVPPD
|  3> #
|  4> ! wb97x-v def2-tzvppd def2/jk grid4 nofinalgrid
|  5>
|  6> *xyz 0 2
|  7> Ag       0.000000    0.000000    0.000000
|  8> Ag       0.000000    0.000000    2.592532
|  9> Ag       0.000000    0.000000   -2.592532
| 10> *
| 11>
| 12> %maxcore 5000
| 13>
| 14> %pal
| 15> nprocs = 24
| 16> end
| 17>
| 18>
| 19>                          ****END OF INPUT****

CARTESIAN COORDINATES (ANGSTROEM)
---------------------------------
  Ag     0.000000    0.000000    0.000000
  Ag     0.000000    0.000000    2.592532
  Ag     0.000000    0.000000   -2.592532

 Total Charge           Charge          ....    0
 Multiplicity           Mult            ....    2
 Number of Electrons    NEL             ....   57
 Basis Dimension        Dim             ....  168

ORBITAL ENERGIES
----------------
                 SPIN UP ORBITALS
  NO   OCC          E(Eh)            E(eV)
   0   1.0000      -3.835700      -104.3747
   1   1.0000      -3.835697      -104.3746
   2   1.0000      -3.816453      -103.8510
   3   1.0000      -2.436897       -66.3113
   4   1.0000      -2.436009       -66.2872
   5   1.0000      -2.433218       -66.2112
   6   1.0000      -2.433218       -66.2112
   7   1.0000      -2.433216       -66.2112
   8   1.0000      -2.433216       -66.2112
   9   1.0000      -2.416935       -65.7682
  10   1.0000      -2.412878       -65.6577
  11   1.0000      -2.412878       -65.6577
  12   1.0000      -0.479999       -13.0614
  13   1.0000      -0.454432       -12.3657
  14   1.0000      -0.454432       -12.3657
  15   1.0000      -0.438610       -11.9352
  16   1.0000      -0.436568       -11.8796
  17   1.0000      -0.436568       -11.8796
  18   1.0000      -0.433003       -11.7826
  19   1.0000      -0.433001       -11.7826
  20   1.0000      -0.431948       -11.7539
  21   1.0000      -0.431946       -11.7539
  22   1.0000      -0.407614       -11.0917
  23   1.0000      -0.407612       -11.0917
  24   1.0000      -0.394722       -10.7409
  25   1.0000      -0.394722       -10.7409
  26   1.0000      -0.387366       -10.5408
  27   1.0000      -0.300832        -8.1861
  28   1.0000      -0.254822        -6.9341
  29   0.0000      -0.010338        -0.2813
  30   0.0000       0.025819         0.7026
  31   0.0000       0.025819         0.7026
  32   0.0000       0.052148         1.4190
  33   0.0000       0.060088         1.6351

                 SPIN DOWN ORBITALS
  NO   OCC          E(Eh)            E(eV)
   0   1.0000      -3.834747      -104.3488
   1   1.0000      -3.834743      -104.3487
   2   1.0000      -3.816943      -103.8643
   3   1.0000      -2.436234       -66.2933
   4   1.0000      -2.435370       -66.2698
   5   1.0000      -2.432558       -66.1933
   6   1.0000      -2.432558       -66.1933
   7   1.0000      -2.432531       -66.1925
   8   1.0000      -2.432531       -66.1925
   9   1.0000      -2.416917       -65.7676
  10   1.0000      -2.413555       -65.6762
  11   1.0000      -2.413555       -65.6762
  12   1.0000      -0.476791       -12.9741
  13   1.0000      -0.451893       -12.2966
  14   1.0000      -0.451893       -12.2966
  15   1.0000      -0.436450       -11.8764
  16   1.0000      -0.433770       -11.8035
  17   1.0000      -0.433770       -11.8035
  18   1.0000      -0.430204       -11.7064
  19   1.0000      -0.430202       -11.7064
  20   1.0000      -0.428965       -11.6727
  21   1.0000      -0.428963       -11.6727
  22   1.0000      -0.408461       -11.1148
  23   1.0000      -0.408459       -11.1147
  24   1.0000      -0.394647       -10.7389
  25   1.0000      -0.394647       -10.7389
  26   1.0000      -0.384346       -10.4586
  27   1.0000      -0.269067        -7.3217
  28   0.0000      -0.070339        -1.9140
  29   0.0000       0.008735         0.2377
  30   0.0000       0.030993         0.8434
  31   0.0000       0.030993         0.8434
  32   0.0000       0.067235         1.8296

MULLIKEN ATOMIC CHARGES AND SPIN POPULATIONS
--------------------------------------------
   0 Ag:   -0.065282   -0.183586
   1 Ag:    0.032645    0.591793
   2 Ag:    0.032637    0.591793
Sum of atomic charges         :   -0.0000000

LOEWDIN ATOMIC CHARGES AND SPIN POPULATIONS
-------------------------------------------
   0 Ag:   -0.205894    0.269996
   1 Ag:    0.102947    0.365002
   2 Ag:    0.102947    0.365002

  Mayer bond orders larger than 0.100000
B(  0-Ag,  1-Ag) :   0.5866 B(  0-Ag,  2-Ag) :   0.5866 B(  1-Ag,  2-Ag) :   0.1114

FINAL SINGLE POINT ENERGY      -440.889647260330

DIPOLE MOMENT
-------------
                                X             Y             Z
Electronic contribution:      0.00000      -0.00000      -0.00000
Nuclear contribution   :      0.00000       0.00000       0.00000
                        -----------------------------------------
Total Dipole Moment    :      0.00000      -0.00000      -0.00000
                        -----------------------------------------
Magnitude (a.u.)       :      0.00000
Magnitude (Debye)      :      0.00000

Rotational constants in cm-1:     0.000000     0.011626     0.011626
Rotational constants in MHz :     0.000000   348.528806   348.528806

                             ****ORCA TERMINATED NORMALLY****
TOTAL RUN TIME: 0 days 0 hours 0 minutes 10 seconds 142 msec
