                         Program Version 4.2.0 -  RELEASE  -
|  1> #
|  2> # Ag04C2_H_E wB97X-V/Def2-TZVPPD
|  3> #
|  4> ! wb97x-v def2-tzvppd def2/jk grid4 nofinalgrid
|  5>
|  6> *xyz 2 2
|  7> Ag      -0.000000    1.374598    1.108828
|  8> Ag      -0.000000   -1.374598    1.108828
|  9> Ag      -1.374988    0.000000   -1.132689
| 10> Ag       1.374988   -0.000000   -1.132689
| 11> H        0.000000    0.000000    2.242952
| 12> *
| 13>
| 14> %maxcore 5000
| 15>
| 16> %pal
| 17> nprocs = 24
| 18> end
| 19>
| 20>
| 21>                          ****END OF INPUT****

CARTESIAN COORDINATES (ANGSTROEM)
---------------------------------
  Ag    -0.000000    1.374598    1.108828
  Ag    -0.000000   -1.374598    1.108828
  Ag    -1.374988    0.000000   -1.132689
  Ag     1.374988   -0.000000   -1.132689
  H      0.000000    0.000000    2.242952

 Total Charge           Charge          ....    2
 Multiplicity           Mult            ....    2
 Number of Electrons    NEL             ....   75
 Basis Dimension        Dim             ....  241

ORBITAL ENERGIES
----------------
                 SPIN UP ORBITALS
  NO   OCC          E(Eh)            E(eV)
   0   1.0000      -4.223702      -114.9328
   1   1.0000      -4.223502      -114.9273
   2   1.0000      -4.211226      -114.5933
   3   1.0000      -4.211031      -114.5880
   4   1.0000      -2.826638       -76.9167
   5   1.0000      -2.824527       -76.8593
   6   1.0000      -2.822321       -76.7993
   7   1.0000      -2.821027       -76.7640
   8   1.0000      -2.818989       -76.7086
   9   1.0000      -2.818733       -76.7016
  10   1.0000      -2.812434       -76.5302
  11   1.0000      -2.809817       -76.4590
  12   1.0000      -2.809712       -76.4562
  13   1.0000      -2.809623       -76.4537
  14   1.0000      -2.809435       -76.4486
  15   1.0000      -2.809226       -76.4429
  16   1.0000      -0.906854       -24.6767
  17   1.0000      -0.860503       -23.4155
  18   1.0000      -0.841587       -22.9007
  19   1.0000      -0.840143       -22.8615
  20   1.0000      -0.838137       -22.8069
  21   1.0000      -0.832871       -22.6636
  22   1.0000      -0.827813       -22.5259
  23   1.0000      -0.824374       -22.4324
  24   1.0000      -0.819017       -22.2866
  25   1.0000      -0.808802       -22.0086
  26   1.0000      -0.808200       -21.9922
  27   1.0000      -0.804060       -21.8796
  28   1.0000      -0.803055       -21.8522
  29   1.0000      -0.802376       -21.8338
  30   1.0000      -0.801177       -21.8011
  31   1.0000      -0.794787       -21.6272
  32   1.0000      -0.792674       -21.5697
  33   1.0000      -0.786990       -21.4151
  34   1.0000      -0.784916       -21.3587
  35   1.0000      -0.778549       -21.1854
  36   1.0000      -0.752466       -20.4756
  37   1.0000      -0.637830       -17.3562
  38   0.0000      -0.362044        -9.8517
  39   0.0000      -0.360488        -9.8094
  40   0.0000      -0.309670        -8.4265
  41   0.0000      -0.255875        -6.9627
  42   0.0000      -0.251619        -6.8469

                 SPIN DOWN ORBITALS
  NO   OCC          E(Eh)            E(eV)
   0   1.0000      -4.220327      -114.8409
   1   1.0000      -4.220135      -114.8357
   2   1.0000      -4.210652      -114.5777
   3   1.0000      -4.210458      -114.5724
   4   1.0000      -2.820878       -76.7600
   5   1.0000      -2.818589       -76.6977
   6   1.0000      -2.818314       -76.6902
   7   1.0000      -2.817686       -76.6731
   8   1.0000      -2.817442       -76.6665
   9   1.0000      -2.817438       -76.6664
  10   1.0000      -2.811481       -76.5043
  11   1.0000      -2.809599       -76.4531
  12   1.0000      -2.809489       -76.4501
  13   1.0000      -2.809359       -76.4466
  14   1.0000      -2.809280       -76.4444
  15   1.0000      -2.808361       -76.4194
  16   1.0000      -0.882857       -24.0238
  17   1.0000      -0.857179       -23.3250
  18   1.0000      -0.838552       -22.8181
  19   1.0000      -0.838322       -22.8119
  20   1.0000      -0.835115       -22.7246
  21   1.0000      -0.829648       -22.5759
  22   1.0000      -0.826156       -22.4809
  23   1.0000      -0.821792       -22.3621
  24   1.0000      -0.814769       -22.1710
  25   1.0000      -0.805198       -21.9105
  26   1.0000      -0.804709       -21.8973
  27   1.0000      -0.801649       -21.8140
  28   1.0000      -0.801506       -21.8101
  29   1.0000      -0.799706       -21.7611
  30   1.0000      -0.795679       -21.6515
  31   1.0000      -0.793951       -21.6045
  32   1.0000      -0.792015       -21.5518
  33   1.0000      -0.783986       -21.3333
  34   1.0000      -0.777820       -21.1656
  35   1.0000      -0.776361       -21.1259
  36   1.0000      -0.724410       -19.7122
  37   0.0000      -0.425618       -11.5816
  38   0.0000      -0.356854        -9.7105
  39   0.0000      -0.352250        -9.5852
  40   0.0000      -0.287542        -7.8244
  41   0.0000      -0.252352        -6.8669

MULLIKEN ATOMIC CHARGES AND SPIN POPULATIONS
--------------------------------------------
   0 Ag:    0.449352    0.085742
   1 Ag:    0.449350    0.085742
   2 Ag:    0.507322    0.261342
   3 Ag:    0.507326    0.261347
   4 H :    0.086649    0.305827
Sum of atomic charges         :    2.0000000

LOEWDIN ATOMIC CHARGES AND SPIN POPULATIONS
-------------------------------------------
   0 Ag:    0.539249    0.209712
   1 Ag:    0.539249    0.209712
   2 Ag:    0.526073    0.188308
   3 Ag:    0.526073    0.188308
   4 H :   -0.130645    0.203961

  Mayer bond orders larger than 0.100000
B(  0-Ag,  1-Ag) :   0.4164 B(  0-Ag,  2-Ag) :   0.2380 B(  0-Ag,  3-Ag) :   0.2380
B(  0-Ag,  4-H ) :   0.4229 B(  1-Ag,  2-Ag) :   0.2380 B(  1-Ag,  3-Ag) :   0.2380
B(  1-Ag,  4-H ) :   0.4229 B(  2-Ag,  3-Ag) :   0.4079

FINAL SINGLE POINT ENERGY      -587.837792060671

DIPOLE MOMENT
-------------
                                X             Y             Z
Electronic contribution:     -0.00000       0.00000      -3.86721
Nuclear contribution   :      0.00000       0.00000       3.49639
                        -----------------------------------------
Total Dipole Moment    :     -0.00000       0.00000      -0.37081
                        -----------------------------------------
Magnitude (a.u.)       :      0.37081
Magnitude (Debye)      :      0.94253

Rotational constants in cm-1:     0.020671     0.017657     0.017653
Rotational constants in MHz :   619.701148   529.337252   529.209018

                             ****ORCA TERMINATED NORMALLY****
TOTAL RUN TIME: 0 days 0 hours 0 minutes 23 seconds 304 msec
