                         Program Version 4.2.0 -  RELEASE  -
|  1> #
|  2> # Ag04C2_H_F wB97X-V/Def2-TZVPPD
|  3> #
|  4> ! wb97x-v def2-tzvppd def2/jk grid4 nofinalgrid
|  5>
|  6> *xyz 2 2
|  7> Ag       0.000000    1.604405   -0.611776
|  8> Ag       1.389456   -0.802203   -0.611776
|  9> Ag      -1.389456   -0.802203   -0.611776
| 10> Ag       0.000000    0.000000    1.871824
| 11> H        0.000000    0.000000   -1.715373
| 12> *
| 13>
| 14> %maxcore 5000
| 15>
| 16> %pal
| 17> nprocs = 24
| 18> end
| 19>
| 20>
| 21>                          ****END OF INPUT****

CARTESIAN COORDINATES (ANGSTROEM)
---------------------------------
  Ag     0.000000    1.604405   -0.611776
  Ag     1.389456   -0.802203   -0.611776
  Ag    -1.389456   -0.802203   -0.611776
  Ag     0.000000    0.000000    1.871824
  H      0.000000    0.000000   -1.715373

 Total Charge           Charge          ....    2
 Multiplicity           Mult            ....    2
 Number of Electrons    NEL             ....   75
 Basis Dimension        Dim             ....  241

ORBITAL ENERGIES
----------------
                 SPIN UP ORBITALS
  NO   OCC          E(Eh)            E(eV)
   0   1.0000      -4.224998      -114.9680
   1   1.0000      -4.224745      -114.9611
   2   1.0000      -4.224743      -114.9611
   3   1.0000      -4.196101      -114.1817
   4   1.0000      -2.827404       -76.9376
   5   1.0000      -2.824986       -76.8718
   6   1.0000      -2.824986       -76.8718
   7   1.0000      -2.823060       -76.8194
   8   1.0000      -2.823035       -76.8187
   9   1.0000      -2.823033       -76.8186
  10   1.0000      -2.822454       -76.8029
  11   1.0000      -2.822451       -76.8028
  12   1.0000      -2.822224       -76.7966
  13   1.0000      -2.795491       -76.0692
  14   1.0000      -2.794354       -76.0382
  15   1.0000      -2.794353       -76.0382
  16   1.0000      -0.924379       -25.1536
  17   1.0000      -0.865947       -23.5636
  18   1.0000      -0.847944       -23.0737
  19   1.0000      -0.847940       -23.0736
  20   1.0000      -0.834588       -22.7103
  21   1.0000      -0.834584       -22.7102
  22   1.0000      -0.833410       -22.6783
  23   1.0000      -0.819504       -22.2998
  24   1.0000      -0.819497       -22.2996
  25   1.0000      -0.810750       -22.0616
  26   1.0000      -0.810745       -22.0615
  27   1.0000      -0.807758       -21.9802
  28   1.0000      -0.804962       -21.9041
  29   1.0000      -0.804960       -21.9041
  30   1.0000      -0.795985       -21.6598
  31   1.0000      -0.789488       -21.4830
  32   1.0000      -0.789476       -21.4827
  33   1.0000      -0.785358       -21.3707
  34   1.0000      -0.778958       -21.1965
  35   1.0000      -0.778950       -21.1963
  36   1.0000      -0.764157       -20.7938
  37   1.0000      -0.614382       -16.7182
  38   0.0000      -0.365339        -9.9414
  39   0.0000      -0.365338        -9.9413
  40   0.0000      -0.301527        -8.2050
  41   0.0000      -0.260335        -7.0841
  42   0.0000      -0.242238        -6.5916

                 SPIN DOWN ORBITALS
  NO   OCC          E(Eh)            E(eV)
   0   1.0000      -4.223144      -114.9176
   1   1.0000      -4.222894      -114.9108
   2   1.0000      -4.222893      -114.9108
   3   1.0000      -4.195503      -114.1654
   4   1.0000      -2.824785       -76.8663
   5   1.0000      -2.823463       -76.8303
   6   1.0000      -2.823462       -76.8303
   7   1.0000      -2.821626       -76.7804
   8   1.0000      -2.821191       -76.7685
   9   1.0000      -2.821188       -76.7684
  10   1.0000      -2.820183       -76.7411
  11   1.0000      -2.819953       -76.7348
  12   1.0000      -2.819950       -76.7347
  13   1.0000      -2.795222       -76.0619
  14   1.0000      -2.794015       -76.0290
  15   1.0000      -2.794014       -76.0290
  16   1.0000      -0.906636       -24.6708
  17   1.0000      -0.861781       -23.4503
  18   1.0000      -0.847286       -23.0558
  19   1.0000      -0.847282       -23.0557
  20   1.0000      -0.831567       -22.6281
  21   1.0000      -0.831563       -22.6280
  22   1.0000      -0.830350       -22.5950
  23   1.0000      -0.817846       -22.2547
  24   1.0000      -0.817838       -22.2545
  25   1.0000      -0.806923       -21.9575
  26   1.0000      -0.806137       -21.9361
  27   1.0000      -0.806127       -21.9358
  28   1.0000      -0.801011       -21.7966
  29   1.0000      -0.800999       -21.7963
  30   1.0000      -0.791525       -21.5385
  31   1.0000      -0.787366       -21.4253
  32   1.0000      -0.787355       -21.4250
  33   1.0000      -0.784444       -21.3458
  34   1.0000      -0.775986       -21.1156
  35   1.0000      -0.775977       -21.1154
  36   1.0000      -0.744829       -20.2678
  37   0.0000      -0.403177       -10.9710
  38   0.0000      -0.359486        -9.7821
  39   0.0000      -0.359486        -9.7821
  40   0.0000      -0.284245        -7.7347
  41   0.0000      -0.252141        -6.8611

MULLIKEN ATOMIC CHARGES AND SPIN POPULATIONS
--------------------------------------------
   0 Ag:    0.509074    0.087250
   1 Ag:    0.508831    0.087327
   2 Ag:    0.508837    0.087329
   3 Ag:    0.392466    0.481101
   4 H :    0.080792    0.256992
Sum of atomic charges         :    2.0000000

LOEWDIN ATOMIC CHARGES AND SPIN POPULATIONS
-------------------------------------------
   0 Ag:    0.545540    0.176523
   1 Ag:    0.545521    0.176532
   2 Ag:    0.545521    0.176532
   3 Ag:    0.507058    0.297228
   4 H :   -0.143640    0.173185

  Mayer bond orders larger than 0.100000
B(  0-Ag,  1-Ag) :   0.3112 B(  0-Ag,  2-Ag) :   0.3112 B(  0-Ag,  3-Ag) :   0.2699
B(  0-Ag,  4-H ) :   0.2591 B(  1-Ag,  2-Ag) :   0.3113 B(  1-Ag,  3-Ag) :   0.2699
B(  1-Ag,  4-H ) :   0.2592 B(  2-Ag,  3-Ag) :   0.2699 B(  2-Ag,  4-H ) :   0.2592

FINAL SINGLE POINT ENERGY      -587.839134461786

DIPOLE MOMENT
-------------
                                X             Y             Z
Electronic contribution:     -0.00000       0.00002       2.68970
Nuclear contribution   :      0.00000       0.00000      -2.67399
                        -----------------------------------------
Total Dipole Moment    :     -0.00000       0.00002       0.01571
                        -----------------------------------------
Magnitude (a.u.)       :      0.01571
Magnitude (Debye)      :      0.03994

Rotational constants in cm-1:     0.020237     0.018353     0.018353
Rotational constants in MHz :   606.690796   550.208253   550.208173

                             ****ORCA TERMINATED NORMALLY****
TOTAL RUN TIME: 0 days 0 hours 0 minutes 23 seconds 32 msec
