                         Program Version 4.2.0 -  RELEASE  -
|  1> #
|  2> # Ag04C2_NH3_A wB97X-V/Def2-TZVPPD
|  3> #
|  4> ! wb97x-v def2-tzvppd def2/jk grid4 nofinalgrid
|  5>
|  6> *xyz 2 1
|  7> Ag      -0.268639    1.507918    0.000000
|  8> Ag       1.705052   -0.492854   -0.000000
|  9> Ag      -0.647170   -0.911099    1.379441
| 10> Ag      -0.647170   -0.911099   -1.379441
| 11> N       -0.647170    3.675657    0.000000
| 12> H       -0.250844    4.149729    0.817426
| 13> H       -0.250844    4.149729   -0.817426
| 14> H       -1.645581    3.906275    0.000000
| 15> *
| 16>
| 17> %maxcore 5000
| 18>
| 19> %pal
| 20> nprocs = 24
| 21> end
| 22>
| 23>
| 24>                          ****END OF INPUT****

CARTESIAN COORDINATES (ANGSTROEM)
---------------------------------
  Ag    -0.268639    1.507918    0.000000
  Ag     1.705052   -0.492854   -0.000000
  Ag    -0.647170   -0.911099    1.379441
  Ag    -0.647170   -0.911099   -1.379441
  N     -0.647170    3.675657    0.000000
  H     -0.250844    4.149729    0.817426
  H     -0.250844    4.149729   -0.817426
  H     -1.645581    3.906275    0.000000

 Total Charge           Charge          ....    2
 Multiplicity           Mult            ....    1
 Number of Electrons    NEL             ....   84
 Basis Dimension        Dim             ....  312

ORBITAL ENERGIES
----------------

  NO   OCC          E(Eh)            E(eV)
   0   2.0000     -14.727730      -400.7619
   1   2.0000      -4.182439      -113.8100
   2   2.0000      -4.182163      -113.8025
   3   2.0000      -4.182160      -113.8024
   4   2.0000      -4.166309      -113.3710
   5   2.0000      -2.783948       -75.7551
   6   2.0000      -2.782111       -75.7051
   7   2.0000      -2.782106       -75.7050
   8   2.0000      -2.780843       -75.6706
   9   2.0000      -2.780584       -75.6635
  10   2.0000      -2.780583       -75.6635
  11   2.0000      -2.780022       -75.6482
  12   2.0000      -2.779695       -75.6393
  13   2.0000      -2.779692       -75.6393
  14   2.0000      -2.764197       -75.2176
  15   2.0000      -2.764197       -75.2176
  16   2.0000      -2.764052       -75.2137
  17   2.0000      -1.306092       -35.5406
  18   2.0000      -0.891315       -24.2539
  19   2.0000      -0.891310       -24.2538
  20   2.0000      -0.840073       -22.8595
  21   2.0000      -0.815202       -22.1828
  22   2.0000      -0.807859       -21.9830
  23   2.0000      -0.807843       -21.9825
  24   2.0000      -0.797873       -21.7112
  25   2.0000      -0.797871       -21.7112
  26   2.0000      -0.791685       -21.5428
  27   2.0000      -0.789209       -21.4755
  28   2.0000      -0.783072       -21.3085
  29   2.0000      -0.783071       -21.3084
  30   2.0000      -0.766922       -20.8690
  31   2.0000      -0.765362       -20.8266
  32   2.0000      -0.765347       -20.8261
  33   2.0000      -0.763072       -20.7643
  34   2.0000      -0.763066       -20.7641
  35   2.0000      -0.753857       -20.5135
  36   2.0000      -0.753854       -20.5134
  37   2.0000      -0.742735       -20.2108
  38   2.0000      -0.734679       -19.9916
  39   2.0000      -0.734673       -19.9915
  40   2.0000      -0.697865       -18.9899
  41   2.0000      -0.670376       -18.2419
  42   0.0000      -0.334552        -9.1036
  43   0.0000      -0.334545        -9.1034
  44   0.0000      -0.308597        -8.3973
  45   0.0000      -0.228090        -6.2067
  46   0.0000      -0.214537        -5.8378

MULLIKEN ATOMIC CHARGES
-----------------------
   0 Ag:    0.390947
   1 Ag:    0.400383
   2 Ag:    0.399522
   3 Ag:    0.399517
   4 N :   -0.274979
   5 H :    0.228097
   6 H :    0.228096
   7 H :    0.228418
Sum of atomic charges:    2.0000000

LOEWDIN ATOMIC CHARGES
----------------------
   0 Ag:    0.413775
   1 Ag:    0.475343
   2 Ag:    0.475332
   3 Ag:    0.475331
   4 N :    0.402720
   5 H :   -0.080844
   6 H :   -0.080844
   7 H :   -0.080813

  Mayer bond orders larger than 0.100000
B(  0-Ag,  1-Ag) :   0.2444 B(  0-Ag,  2-Ag) :   0.2447 B(  0-Ag,  3-Ag) :   0.2447
B(  0-Ag,  4-N ) :   0.4546 B(  1-Ag,  2-Ag) :   0.4342 B(  1-Ag,  3-Ag) :   0.4342
B(  2-Ag,  3-Ag) :   0.4348 B(  4-N ,  5-H ) :   0.9842 B(  4-N ,  6-H ) :   0.9842
B(  4-N ,  7-H ) :   0.9839

FINAL SINGLE POINT ENERGY      -643.943723648464

DIPOLE MOMENT
-------------
                                X             Y             Z
Electronic contribution:      8.70336     -49.43749       0.00000
Nuclear contribution   :     -9.00166      51.14183       0.00000
                        -----------------------------------------
Total Dipole Moment    :     -0.29830       1.70435       0.00000
                        -----------------------------------------
Magnitude (a.u.)       :      1.73026
Magnitude (Debye)      :      4.39796

Rotational constants in cm-1:     0.020466     0.015199     0.015198
Rotational constants in MHz :   613.555994   455.656791   455.636329

                             ****ORCA TERMINATED NORMALLY****
TOTAL RUN TIME: 0 days 0 hours 0 minutes 27 seconds 666 msec
