                         Program Version 4.2.0 -  RELEASE  -
|  1> #
|  2> # Ag04C2 wB97X-V/Def2-TZVPPD
|  3> #
|  4> ! wb97x-v def2-tzvppd def2/jk grid4 nofinalgrid
|  5>
|  6> *xyz 2 1
|  7> Ag      -0.000000   -0.000016    1.715553
|  8> Ag       0.000000   -1.617524   -0.571836
|  9> Ag       1.400774    0.808769   -0.571859
| 10> Ag      -1.400774    0.808770   -0.571858
| 11> *
| 12>
| 13> %maxcore 5000
| 14>
| 15> %pal
| 16> nprocs = 24
| 17> end
| 18>
| 19>
| 20>                          ****END OF INPUT****

CARTESIAN COORDINATES (ANGSTROEM)
---------------------------------
  Ag    -0.000000   -0.000016    1.715553
  Ag     0.000000   -1.617524   -0.571836
  Ag     1.400774    0.808769   -0.571859
  Ag    -1.400774    0.808770   -0.571858

 Total Charge           Charge          ....    2
 Multiplicity           Mult            ....    1
 Number of Electrons    NEL             ....   74
 Basis Dimension        Dim             ....  224

ORBITAL ENERGIES
----------------

  NO   OCC          E(Eh)            E(eV)
   0   2.0000      -4.210117      -114.5631
   1   2.0000      -4.209828      -114.5552
   2   2.0000      -4.209826      -114.5552
   3   2.0000      -4.209824      -114.5551
   4   2.0000      -2.811888       -76.5154
   5   2.0000      -2.809830       -76.4594
   6   2.0000      -2.809829       -76.4593
   7   2.0000      -2.809828       -76.4593
   8   2.0000      -2.809075       -76.4388
   9   2.0000      -2.809073       -76.4388
  10   2.0000      -2.807710       -76.4017
  11   2.0000      -2.807710       -76.4017
  12   2.0000      -2.807708       -76.4016
  13   2.0000      -2.807471       -76.3952
  14   2.0000      -2.807470       -76.3951
  15   2.0000      -2.807469       -76.3951
  16   2.0000      -0.861237       -23.4355
  17   2.0000      -0.838031       -22.8040
  18   2.0000      -0.838024       -22.8038
  19   2.0000      -0.838016       -22.8036
  20   2.0000      -0.830658       -22.6033
  21   2.0000      -0.830651       -22.6032
  22   2.0000      -0.816282       -22.2122
  23   2.0000      -0.816279       -22.2121
  24   2.0000      -0.816269       -22.2118
  25   2.0000      -0.795483       -21.6462
  26   2.0000      -0.795472       -21.6459
  27   2.0000      -0.795469       -21.6458
  28   2.0000      -0.793132       -21.5822
  29   2.0000      -0.793123       -21.5820
  30   2.0000      -0.791666       -21.5423
  31   2.0000      -0.791654       -21.5420
  32   2.0000      -0.791641       -21.5416
  33   2.0000      -0.772233       -21.0135
  34   2.0000      -0.772233       -21.0135
  35   2.0000      -0.772223       -21.0133
  36   2.0000      -0.700203       -19.0535
  37   0.0000      -0.358998        -9.7688
  38   0.0000      -0.358993        -9.7687
  39   0.0000      -0.358992        -9.7687
  40   0.0000      -0.252095        -6.8599
  41   0.0000      -0.236346        -6.4313

MULLIKEN ATOMIC CHARGES
-----------------------
   0 Ag:    0.499920
   1 Ag:    0.500146
   2 Ag:    0.499965
   3 Ag:    0.499970
Sum of atomic charges:    2.0000000

LOEWDIN ATOMIC CHARGES
----------------------
   0 Ag:    0.499978
   1 Ag:    0.500035
   2 Ag:    0.499993
   3 Ag:    0.499993

  Mayer bond orders larger than 0.100000
B(  0-Ag,  1-Ag) :   0.3387 B(  0-Ag,  2-Ag) :   0.3388 B(  0-Ag,  3-Ag) :   0.3388
B(  1-Ag,  2-Ag) :   0.3387 B(  1-Ag,  3-Ag) :   0.3387 B(  2-Ag,  3-Ag) :   0.3387

FINAL SINGLE POINT ENERGY      -587.302041191875

DIPOLE MOMENT
-------------
                                X             Y             Z
Electronic contribution:     -0.00000      -0.00008      -0.00007
Nuclear contribution   :      0.00000      -0.00000       0.00000
                        -----------------------------------------
Total Dipole Moment    :     -0.00000      -0.00008      -0.00007
                        -----------------------------------------
Magnitude (a.u.)       :      0.00011
Magnitude (Debye)      :      0.00027

Rotational constants in cm-1:     0.019912     0.019911     0.019911
Rotational constants in MHz :   596.940436   596.919431   596.905399

                             ****ORCA TERMINATED NORMALLY****
TOTAL RUN TIME: 0 days 0 hours 0 minutes 16 seconds 38 msec
