                         Program Version 4.2.0 -  RELEASE  -
|  1> #
|  2> # Ag04C2_H_A wB97X-V/Def2-TZVPPD
|  3> #
|  4> ! wb97x-v def2-tzvppd def2/jk grid4 nofinalgrid
|  5>
|  6> *xyz 2 2
|  7> Ag       0.000000    0.000000    1.733523
|  8> Ag       0.000000    1.616553   -0.602470
|  9> Ag      -1.399976   -0.808277   -0.602470
| 10> Ag       1.399976   -0.808277   -0.602470
| 11> H        0.000000    0.000000    3.472645
| 12> *
| 13>
| 14> %maxcore 5000
| 15>
| 16> %pal
| 17> nprocs = 24
| 18> end
| 19>
| 20>
| 21>                          ****END OF INPUT****

CARTESIAN COORDINATES (ANGSTROEM)
---------------------------------
  Ag     0.000000    0.000000    1.733523
  Ag     0.000000    1.616553   -0.602470
  Ag    -1.399976   -0.808277   -0.602470
  Ag     1.399976   -0.808277   -0.602470
  H      0.000000    0.000000    3.472645

 Total Charge           Charge          ....    2
 Multiplicity           Mult            ....    2
 Number of Electrons    NEL             ....   75
 Basis Dimension        Dim             ....  241

ORBITAL ENERGIES
----------------
                 SPIN UP ORBITALS
  NO   OCC          E(Eh)            E(eV)
   0   1.0000      -4.228529      -115.0641
   1   1.0000      -4.209056      -114.5342
   2   1.0000      -4.208838      -114.5283
   3   1.0000      -4.208836      -114.5282
   4   1.0000      -2.832671       -77.0809
   5   1.0000      -2.823044       -76.8189
   6   1.0000      -2.823043       -76.8189
   7   1.0000      -2.810188       -76.4691
   8   1.0000      -2.808545       -76.4244
   9   1.0000      -2.808543       -76.4243
  10   1.0000      -2.807578       -76.3981
  11   1.0000      -2.807477       -76.3953
  12   1.0000      -2.807472       -76.3952
  13   1.0000      -2.806639       -76.3725
  14   1.0000      -2.806505       -76.3689
  15   1.0000      -2.806504       -76.3689
  16   1.0000      -0.895421       -24.3657
  17   1.0000      -0.843035       -22.9402
  18   1.0000      -0.843022       -22.9398
  19   1.0000      -0.843019       -22.9397
  20   1.0000      -0.832330       -22.6489
  21   1.0000      -0.832325       -22.6487
  22   1.0000      -0.827560       -22.5191
  23   1.0000      -0.819987       -22.3130
  24   1.0000      -0.819980       -22.3128
  25   1.0000      -0.815417       -22.1886
  26   1.0000      -0.801606       -21.8128
  27   1.0000      -0.801602       -21.8127
  28   1.0000      -0.794382       -21.6162
  29   1.0000      -0.793133       -21.5823
  30   1.0000      -0.793125       -21.5820
  31   1.0000      -0.790675       -21.5153
  32   1.0000      -0.790658       -21.5149
  33   1.0000      -0.778143       -21.1743
  34   1.0000      -0.778139       -21.1742
  35   1.0000      -0.770941       -20.9784
  36   1.0000      -0.736809       -20.0496
  37   1.0000      -0.694959       -18.9108
  38   0.0000      -0.359025        -9.7696
  39   0.0000      -0.359023        -9.7695
  40   0.0000      -0.329617        -8.9693
  41   0.0000      -0.246324        -6.7028
  42   0.0000      -0.238495        -6.4898

                 SPIN DOWN ORBITALS
  NO   OCC          E(Eh)            E(eV)
   0   1.0000      -4.224439      -114.9528
   1   1.0000      -4.208953      -114.5314
   2   1.0000      -4.208735      -114.5255
   3   1.0000      -4.208733      -114.5254
   4   1.0000      -2.824040       -76.8460
   5   1.0000      -2.821062       -76.7650
   6   1.0000      -2.821061       -76.7650
   7   1.0000      -2.809953       -76.4627
   8   1.0000      -2.808461       -76.4221
   9   1.0000      -2.808459       -76.4221
  10   1.0000      -2.807450       -76.3946
  11   1.0000      -2.807419       -76.3938
  12   1.0000      -2.807415       -76.3936
  13   1.0000      -2.806644       -76.3727
  14   1.0000      -2.806350       -76.3647
  15   1.0000      -2.806349       -76.3647
  16   1.0000      -0.866897       -23.5895
  17   1.0000      -0.841454       -22.8971
  18   1.0000      -0.841439       -22.8967
  19   1.0000      -0.838536       -22.8177
  20   1.0000      -0.831374       -22.6228
  21   1.0000      -0.831369       -22.6227
  22   1.0000      -0.818220       -22.2649
  23   1.0000      -0.818212       -22.2647
  24   1.0000      -0.814955       -22.1761
  25   1.0000      -0.809683       -22.0326
  26   1.0000      -0.800050       -21.7705
  27   1.0000      -0.800046       -21.7704
  28   1.0000      -0.794250       -21.6126
  29   1.0000      -0.792947       -21.5772
  30   1.0000      -0.792937       -21.5769
  31   1.0000      -0.790426       -21.5086
  32   1.0000      -0.790408       -21.5081
  33   1.0000      -0.776887       -21.1402
  34   1.0000      -0.776882       -21.1400
  35   1.0000      -0.771023       -20.9806
  36   1.0000      -0.697162       -18.9707
  37   0.0000      -0.421074       -11.4580
  38   0.0000      -0.358278        -9.7492
  39   0.0000      -0.358276        -9.7492
  40   0.0000      -0.310785        -8.4569
  41   0.0000      -0.244803        -6.6614

MULLIKEN ATOMIC CHARGES AND SPIN POPULATIONS
--------------------------------------------
   0 Ag:    0.361834    0.272828
   1 Ag:    0.483476    0.022241
   2 Ag:    0.483363    0.022233
   3 Ag:    0.483352    0.022231
   4 H :    0.187975    0.660468
Sum of atomic charges         :    2.0000000

LOEWDIN ATOMIC CHARGES AND SPIN POPULATIONS
-------------------------------------------
   0 Ag:    0.420136    0.355892
   1 Ag:    0.498622    0.017795
   2 Ag:    0.498593    0.017794
   3 Ag:    0.498593    0.017794
   4 H :    0.084056    0.590726

  Mayer bond orders larger than 0.100000
B(  0-Ag,  1-Ag) :   0.3125 B(  0-Ag,  2-Ag) :   0.3125 B(  0-Ag,  3-Ag) :   0.3125
B(  0-Ag,  4-H ) :   0.5310 B(  1-Ag,  2-Ag) :   0.3587 B(  1-Ag,  3-Ag) :   0.3587
B(  2-Ag,  3-Ag) :   0.3587

FINAL SINGLE POINT ENERGY      -587.818405319645

DIPOLE MOMENT
-------------
                                X             Y             Z
Electronic contribution:     -0.00000       0.00006      -5.30754
Nuclear contribution   :      0.00000       0.00000       5.41329
                        -----------------------------------------
Total Dipole Moment    :     -0.00000       0.00006       0.10574
                        -----------------------------------------
Magnitude (a.u.)       :      0.10574
Magnitude (Debye)      :      0.26877

Rotational constants in cm-1:     0.019934     0.019231     0.019231
Rotational constants in MHz :   597.606998   576.544336   576.544235

                             ****ORCA TERMINATED NORMALLY****
TOTAL RUN TIME: 0 days 0 hours 0 minutes 22 seconds 774 msec
