                         Program Version 4.2.0 -  RELEASE  -
|  1> #
|  2> # Ag04N0 wB97X-V/Def2-TZVPPD
|  3> #
|  4> ! wb97x-v def2-tzvppd def2/jk grid4 nofinalgrid
|  5>
|  6> *xyz 0 1
|  7> Ag      -1.015022   -0.433109    0.700282
|  8> Ag       0.974659   -2.209777    0.043294
|  9> Ag       1.013798    0.433158   -0.699441
| 10> Ag      -0.973435    2.209727   -0.044135
| 11> *
| 12>
| 13> %maxcore 5000
| 14>
| 15> %pal
| 16> nprocs = 24
| 17> end
| 18>
| 19>
| 20>                          ****END OF INPUT****

CARTESIAN COORDINATES (ANGSTROEM)
---------------------------------
  Ag    -1.015022   -0.433109    0.700282
  Ag     0.974659   -2.209777    0.043294
  Ag     1.013798    0.433158   -0.699441
  Ag    -0.973435    2.209727   -0.044135

 Total Charge           Charge          ....    0
 Multiplicity           Mult            ....    1
 Number of Electrons    NEL             ....   76
 Basis Dimension        Dim             ....  224

ORBITAL ENERGIES
----------------

  NO   OCC          E(Eh)            E(eV)
   0   2.0000      -3.844458      -104.6130
   1   2.0000      -3.844050      -104.6019
   2   2.0000      -3.816100      -103.8414
   3   2.0000      -3.816049      -103.8400
   4   2.0000      -2.447491       -66.5996
   5   2.0000      -2.442191       -66.4554
   6   2.0000      -2.441979       -66.4496
   7   2.0000      -2.441689       -66.4417
   8   2.0000      -2.441582       -66.4388
   9   2.0000      -2.441211       -66.4287
  10   2.0000      -2.415520       -65.7296
  11   2.0000      -2.415408       -65.7266
  12   2.0000      -2.413879       -65.6850
  13   2.0000      -2.413809       -65.6831
  14   2.0000      -2.412118       -65.6371
  15   2.0000      -2.412068       -65.6357
  16   2.0000      -0.483264       -13.1503
  17   2.0000      -0.482352       -13.1255
  18   2.0000      -0.464844       -12.6491
  19   2.0000      -0.460592       -12.5333
  20   2.0000      -0.457016       -12.4360
  21   2.0000      -0.453072       -12.3287
  22   2.0000      -0.440748       -11.9934
  23   2.0000      -0.437209       -11.8971
  24   2.0000      -0.423627       -11.5275
  25   2.0000      -0.422346       -11.4926
  26   2.0000      -0.414934       -11.2909
  27   2.0000      -0.410327       -11.1656
  28   2.0000      -0.409926       -11.1547
  29   2.0000      -0.408965       -11.1285
  30   2.0000      -0.403415       -10.9775
  31   2.0000      -0.403202       -10.9717
  32   2.0000      -0.403009       -10.9664
  33   2.0000      -0.400026       -10.8853
  34   2.0000      -0.396384       -10.7862
  35   2.0000      -0.383668       -10.4401
  36   2.0000      -0.333934        -9.0868
  37   2.0000      -0.229926        -6.2566
  38   0.0000      -0.035912        -0.9772
  39   0.0000      -0.002467        -0.0671
  40   0.0000       0.015322         0.4169
  41   0.0000       0.042291         1.1508
  42   0.0000       0.049214         1.3392

MULLIKEN ATOMIC CHARGES
-----------------------
   0 Ag:    0.156397
   1 Ag:   -0.156333
   2 Ag:    0.156113
   3 Ag:   -0.156177
Sum of atomic charges:   -0.0000000

LOEWDIN ATOMIC CHARGES
----------------------
   0 Ag:   -0.086678
   1 Ag:    0.087028
   2 Ag:   -0.087516
   3 Ag:    0.087167

  Mayer bond orders larger than 0.100000
B(  0-Ag,  1-Ag) :   0.5171 B(  0-Ag,  2-Ag) :   0.4038 B(  0-Ag,  3-Ag) :   0.5174
B(  1-Ag,  2-Ag) :   0.5176 B(  1-Ag,  3-Ag) :   0.1231 B(  2-Ag,  3-Ag) :   0.5176

FINAL SINGLE POINT ENERGY      -587.903591826637

DIPOLE MOMENT
-------------
                                X             Y             Z
Electronic contribution:     -0.00152       0.00028       0.00079
Nuclear contribution   :      0.00000       0.00000       0.00000
                        -----------------------------------------
Total Dipole Moment    :     -0.00152       0.00028       0.00079
                        -----------------------------------------
Magnitude (a.u.)       :      0.00173
Magnitude (Debye)      :      0.00440

Rotational constants in cm-1:     0.045790     0.013394     0.010363
Rotational constants in MHz :  1372.764620   401.554164   310.676613

                             ****ORCA TERMINATED NORMALLY****
TOTAL RUN TIME: 0 days 0 hours 0 minutes 15 seconds 790 msec
