                         Program Version 4.2.0 -  RELEASE  -
|  1> #
|  2> # Ag04C2_NH3_F wB97X-V/Def2-TZVPPD
|  3> #
|  4> ! wb97x-v def2-tzvppd def2/jk grid4 nofinalgrid
|  5>
|  6> *xyz 2 1
|  7> Ag       0.000000    1.593354   -0.403942
|  8> Ag       1.379885   -0.796677   -0.403942
|  9> Ag      -1.379885   -0.796677   -0.403942
| 10> Ag       0.000000    0.000000    1.894943
| 11> N        0.000000    0.000000   -3.082630
| 12> H        0.808649    0.466874   -3.509356
| 13> H       -0.000000   -0.933748   -3.509356
| 14> H       -0.808649    0.466874   -3.509356
| 15> *
| 16>
| 17> %maxcore 5000
| 18>
| 19> %pal
| 20> nprocs = 24
| 21> end
| 22>
| 23>
| 24>                          ****END OF INPUT****

CARTESIAN COORDINATES (ANGSTROEM)
---------------------------------
  Ag     0.000000    1.593354   -0.403942
  Ag     1.379885   -0.796677   -0.403942
  Ag    -1.379885   -0.796677   -0.403942
  Ag     0.000000    0.000000    1.894943
  N      0.000000    0.000000   -3.082630
  H      0.808649    0.466874   -3.509356
  H     -0.000000   -0.933748   -3.509356
  H     -0.808649    0.466874   -3.509356

 Total Charge           Charge          ....    2
 Multiplicity           Mult            ....    1
 Number of Electrons    NEL             ....   84
 Basis Dimension        Dim             ....  312

ORBITAL ENERGIES
----------------

  NO   OCC          E(Eh)            E(eV)
   0   2.0000     -14.705079      -400.1456
   1   2.0000      -4.186261      -113.9140
   2   2.0000      -4.185984      -113.9064
   3   2.0000      -4.185980      -113.9063
   4   2.0000      -4.179828      -113.7389
   5   2.0000      -2.788135       -75.8690
   6   2.0000      -2.786474       -75.8238
   7   2.0000      -2.786471       -75.8237
   8   2.0000      -2.784546       -75.7714
   9   2.0000      -2.784542       -75.7712
  10   2.0000      -2.784493       -75.7699
  11   2.0000      -2.784414       -75.7677
  12   2.0000      -2.783353       -75.7389
  13   2.0000      -2.783350       -75.7388
  14   2.0000      -2.778803       -75.6151
  15   2.0000      -2.777967       -75.5923
  16   2.0000      -2.777966       -75.5923
  17   2.0000      -1.288293       -35.0562
  18   2.0000      -0.871069       -23.7030
  19   2.0000      -0.871067       -23.7029
  20   2.0000      -0.838851       -22.8263
  21   2.0000      -0.818163       -22.2634
  22   2.0000      -0.814333       -22.1591
  23   2.0000      -0.814323       -22.1589
  24   2.0000      -0.806138       -21.9361
  25   2.0000      -0.806138       -21.9361
  26   2.0000      -0.796270       -21.6676
  27   2.0000      -0.789966       -21.4961
  28   2.0000      -0.789959       -21.4959
  29   2.0000      -0.771124       -20.9833
  30   2.0000      -0.770143       -20.9566
  31   2.0000      -0.770139       -20.9565
  32   2.0000      -0.767558       -20.8863
  33   2.0000      -0.767547       -20.8860
  34   2.0000      -0.766040       -20.8450
  35   2.0000      -0.766039       -20.8450
  36   2.0000      -0.765673       -20.8350
  37   2.0000      -0.747382       -20.3373
  38   2.0000      -0.745510       -20.2864
  39   2.0000      -0.745499       -20.2861
  40   2.0000      -0.726070       -19.7574
  41   2.0000      -0.649576       -17.6759
  42   0.0000      -0.339372        -9.2348
  43   0.0000      -0.339369        -9.2347
  44   0.0000      -0.323194        -8.7946
  45   0.0000      -0.239102        -6.5063
  46   0.0000      -0.222244        -6.0476

MULLIKEN ATOMIC CHARGES
-----------------------
   0 Ag:    0.467145
   1 Ag:    0.466992
   2 Ag:    0.467002
   3 Ag:    0.455801
   4 N :   -0.415226
   5 H :    0.186114
   6 H :    0.186058
   7 H :    0.186115
Sum of atomic charges:    2.0000000

LOEWDIN ATOMIC CHARGES
----------------------
   0 Ag:    0.483551
   1 Ag:    0.483525
   2 Ag:    0.483525
   3 Ag:    0.471703
   4 N :    0.400548
   5 H :   -0.107617
   6 H :   -0.107618
   7 H :   -0.107617

  Mayer bond orders larger than 0.100000
B(  0-Ag,  1-Ag) :   0.3349 B(  0-Ag,  2-Ag) :   0.3349 B(  0-Ag,  3-Ag) :   0.3485
B(  1-Ag,  2-Ag) :   0.3349 B(  1-Ag,  3-Ag) :   0.3485 B(  2-Ag,  3-Ag) :   0.3485
B(  4-N ,  5-H ) :   1.0190 B(  4-N ,  6-H ) :   1.0189 B(  4-N ,  7-H ) :   1.0190

FINAL SINGLE POINT ENERGY      -643.903316280668

DIPOLE MOMENT
-------------
                                X             Y             Z
Electronic contribution:     -0.00000       0.00005      41.83720
Nuclear contribution   :      0.00000       0.00000     -43.35494
                        -----------------------------------------
Total Dipole Moment    :     -0.00000       0.00005      -1.51774
                        -----------------------------------------
Magnitude (a.u.)       :      1.51774
Magnitude (Debye)      :      3.85778

Rotational constants in cm-1:     0.020453     0.016499     0.016499
Rotational constants in MHz :   613.168216   494.640125   494.640113

                             ****ORCA TERMINATED NORMALLY****
TOTAL RUN TIME: 0 days 0 hours 0 minutes 30 seconds 412 msec
