                         Program Version 4.2.0 -  RELEASE  -
|  1> #
|  2> # Au01N0 wB97X-V/Def2-TZVPPD
|  3> #
|  4> ! wb97x-v def2-tzvppd def2/jk grid4 nofinalgrid
|  5>
|  6> *xyz 0 2
|  7> Au       0.000000    0.000000    0.000000
|  8> *
|  9>
| 10> %maxcore 5000
| 11>
| 12> %pal
| 13> nprocs = 24
| 14> end
| 15>
| 16>
| 17>                          ****END OF INPUT****

CARTESIAN COORDINATES (ANGSTROEM)
---------------------------------
  Au     0.000000    0.000000    0.000000

 Total Charge           Charge          ....    0
 Multiplicity           Mult            ....    2
 Number of Electrons    NEL             ....   19
 Basis Dimension        Dim             ....   59

ORBITAL ENERGIES
----------------
                 SPIN UP ORBITALS
  NO   OCC          E(Eh)            E(eV)
   0   1.0000      -4.370767      -118.9346
   1   1.0000      -2.567266       -69.8589
   2   1.0000      -2.559668       -69.6521
   3   1.0000      -2.515046       -68.4379
   4   1.0000      -0.535342       -14.5674
   5   1.0000      -0.505047       -13.7430
   6   1.0000      -0.488286       -13.2869
   7   1.0000      -0.485855       -13.2208
   8   1.0000      -0.481843       -13.1116
   9   1.0000      -0.348854        -9.4928
  10   0.0000       0.035512         0.9663
  11   0.0000       0.036376         0.9898
  12   0.0000       0.043080         1.1723
  13   0.0000       0.188078         5.1179
  14   0.0000       0.241460         6.5705

                 SPIN DOWN ORBITALS
  NO   OCC          E(Eh)            E(eV)
   0   1.0000      -4.343151      -118.1831
   1   1.0000      -2.516301       -68.4720
   2   1.0000      -2.515185       -68.4417
   3   1.0000      -2.505040       -68.1656
   4   1.0000      -0.493030       -13.4160
   5   1.0000      -0.472170       -12.8484
   6   1.0000      -0.468800       -12.7567
   7   1.0000      -0.462245       -12.5783
   8   1.0000      -0.339887        -9.2488
   9   0.0000      -0.142907        -3.8887
  10   0.0000       0.038337         1.0432
  11   0.0000       0.039102         1.0640
  12   0.0000       0.043118         1.1733
  13   0.0000       0.192280         5.2322

MULLIKEN ATOMIC CHARGES AND SPIN POPULATIONS
--------------------------------------------
   0 Au:    0.000000    1.000000
Sum of atomic charges         :    0.0000000

LOEWDIN ATOMIC CHARGES AND SPIN POPULATIONS
-------------------------------------------
   0 Au:    0.000000    1.000000

FINAL SINGLE POINT ENERGY      -135.598761629487

DIPOLE MOMENT
-------------
                                X             Y             Z
Electronic contribution:     -0.00000      -0.00000      -0.00000
Nuclear contribution   :      0.00000       0.00000       0.00000
                        -----------------------------------------
Total Dipole Moment    :     -0.00000      -0.00000      -0.00000
                        -----------------------------------------
Magnitude (a.u.)       :      0.00000
Magnitude (Debye)      :      0.00000

Rotational constants in cm-1:     0.000000     0.000000     0.000000
Rotational constants in MHz :     0.000000     0.000000     0.000000

                             ****ORCA TERMINATED NORMALLY****
TOTAL RUN TIME: 0 days 0 hours 0 minutes 4 seconds 277 msec
