                         Program Version 4.2.0 -  RELEASE  -
|  1> #
|  2> # Au01N0_F wB97X-V/Def2-TZVPPD
|  3> #
|  4> ! wb97x-v def2-tzvppd def2/jk grid4 nofinalgrid
|  5>
|  6> *xyz 0 1
|  7> Au       0.000000    0.000000    0.196853
|  8> F        0.000000    0.000000   -1.727931
|  9> *
| 10>
| 11> %maxcore 5000
| 12>
| 13> %pal
| 14> nprocs = 24
| 15> end
| 16>
| 17>
| 18>                          ****END OF INPUT****

CARTESIAN COORDINATES (ANGSTROEM)
---------------------------------
  Au     0.000000    0.000000    0.196853
  F      0.000000    0.000000   -1.727931

 Total Charge           Charge          ....    0
 Multiplicity           Mult            ....    1
 Number of Electrons    NEL             ....   28
 Basis Dimension        Dim             ....   99

ORBITAL ENERGIES
----------------

  NO   OCC          E(Eh)            E(eV)
   0   2.0000     -24.690952      -671.8750
   1   2.0000      -4.296345      -116.9095
   2   2.0000      -2.488312       -67.7104
   3   2.0000      -2.472732       -67.2865
   4   2.0000      -2.472732       -67.2865
   5   2.0000      -1.214683       -33.0532
   6   2.0000      -0.546951       -14.8833
   7   2.0000      -0.507342       -13.8055
   8   2.0000      -0.507342       -13.8055
   9   2.0000      -0.441958       -12.0263
  10   2.0000      -0.441957       -12.0263
  11   2.0000      -0.409512       -11.1434
  12   2.0000      -0.409512       -11.1434
  13   2.0000      -0.394133       -10.7249
  14   0.0000      -0.066949        -1.8218
  15   0.0000       0.053623         1.4592
  16   0.0000       0.053623         1.4592
  17   0.0000       0.087802         2.3892
  18   0.0000       0.145410         3.9568

MULLIKEN ATOMIC CHARGES
-----------------------
   0 Au:    0.491734
   1 F :   -0.491734
Sum of atomic charges:   -0.0000000

LOEWDIN ATOMIC CHARGES
----------------------
   0 Au:    0.625319
   1 F :   -0.625319

  Mayer bond orders larger than 0.100000
B(  0-Au,  1-F ) :   0.8029

FINAL SINGLE POINT ENERGY      -235.515030970235

DIPOLE MOMENT
-------------
                                X             Y             Z
Electronic contribution:     -0.00000      -0.00000      25.58524
Nuclear contribution   :      0.00000       0.00000     -23.77673
                        -----------------------------------------
Total Dipole Moment    :     -0.00000      -0.00000       1.80851
                        -----------------------------------------
Magnitude (a.u.)       :      1.80851
Magnitude (Debye)      :      4.59686

Rotational constants in cm-1:     0.000000     0.262612     0.262612
Rotational constants in MHz :     0.000000  7872.917876  7872.917876

                             ****ORCA TERMINATED NORMALLY****
TOTAL RUN TIME: 0 days 0 hours 0 minutes 6 seconds 315 msec
