                         Program Version 4.2.0 -  RELEASE  -
|  1> #
|  2> # Au01N0_H wB97X-V/Def2-TZVPPD
|  3> #
|  4> ! wb97x-v def2-tzvppd def2/jk grid4 nofinalgrid
|  5>
|  6> *xyz 0 1
|  7> Au       0.000000    0.000000    0.019034
|  8> H        0.000000    0.000000   -1.503691
|  9> *
| 10>
| 11> %maxcore 5000
| 12>
| 13> %pal
| 14> nprocs = 24
| 15> end
| 16>
| 17>
| 18>                          ****END OF INPUT****

CARTESIAN COORDINATES (ANGSTROEM)
---------------------------------
  Au     0.000000    0.000000    0.019034
  H      0.000000    0.000000   -1.503691

 Total Charge           Charge          ....    0
 Multiplicity           Mult            ....    1
 Number of Electrons    NEL             ....   20
 Basis Dimension        Dim             ....   76

ORBITAL ENERGIES
----------------

  NO   OCC          E(Eh)            E(eV)
   0   2.0000      -4.272689      -116.2658
   1   2.0000      -2.466304       -67.1116
   2   2.0000      -2.446143       -66.5629
   3   2.0000      -2.446143       -66.5629
   4   2.0000      -0.526849       -14.3363
   5   2.0000      -0.432636       -11.7726
   6   2.0000      -0.432636       -11.7726
   7   2.0000      -0.413169       -11.2429
   8   2.0000      -0.413168       -11.2429
   9   2.0000      -0.354913        -9.6577
  10   0.0000      -0.016227        -0.4416
  11   0.0000       0.051226         1.3939
  12   0.0000       0.051226         1.3939
  13   0.0000       0.128528         3.4974
  14   0.0000       0.158110         4.3024

MULLIKEN ATOMIC CHARGES
-----------------------
   0 Au:   -0.086752
   1 H :    0.086752
Sum of atomic charges:   -0.0000000

LOEWDIN ATOMIC CHARGES
----------------------
   0 Au:    0.361914
   1 H :   -0.361914

  Mayer bond orders larger than 0.100000
B(  0-Au,  1-H ) :   1.0926

FINAL SINGLE POINT ENERGY      -136.278007010326

DIPOLE MOMENT
-------------
                                X             Y             Z
Electronic contribution:     -0.00000      -0.00000       3.29748
Nuclear contribution   :      0.00000       0.00000      -2.58451
                        -----------------------------------------
Total Dipole Moment    :     -0.00000      -0.00000       0.71297
                        -----------------------------------------
Magnitude (a.u.)       :      0.71297
Magnitude (Debye)      :      1.81222

Rotational constants in cm-1:     0.000000     7.249537     7.249537
Rotational constants in MHz :     0.000000 217335.666254 217335.666254

                             ****ORCA TERMINATED NORMALLY****
TOTAL RUN TIME: 0 days 0 hours 0 minutes 5 seconds 280 msec
