                         Program Version 4.2.0 -  RELEASE  -
|  1> #
|  2> # Au02N0 wB97X-V/Def2-TZVPPD
|  3> #
|  4> ! wb97x-v def2-tzvppd def2/jk grid4 nofinalgrid
|  5>
|  6> *xyz 0 1
|  7> Au       0.000000    0.000000    1.239541
|  8> Au       0.000000    0.000000   -1.239541
|  9> *
| 10>
| 11> %maxcore 5000
| 12>
| 13> %pal
| 14> nprocs = 24
| 15> end
| 16>
| 17>
| 18>                          ****END OF INPUT****

CARTESIAN COORDINATES (ANGSTROEM)
---------------------------------
  Au     0.000000    0.000000    1.239541
  Au     0.000000    0.000000   -1.239541

 Total Charge           Charge          ....    0
 Multiplicity           Mult            ....    1
 Number of Electrons    NEL             ....   38
 Basis Dimension        Dim             ....  118

ORBITAL ENERGIES
----------------

  NO   OCC          E(Eh)            E(eV)
   0   2.0000      -4.244132      -115.4887
   1   2.0000      -4.243439      -115.4699
   2   2.0000      -2.438184       -66.3464
   3   2.0000      -2.424932       -65.9857
   4   2.0000      -2.422403       -65.9169
   5   2.0000      -2.422403       -65.9169
   6   2.0000      -2.421330       -65.8877
   7   2.0000      -2.421330       -65.8877
   8   2.0000      -0.471077       -12.8186
   9   2.0000      -0.440914       -11.9979
  10   2.0000      -0.440914       -11.9979
  11   2.0000      -0.402043       -10.9401
  12   2.0000      -0.402034       -10.9399
  13   2.0000      -0.387828       -10.5533
  14   2.0000      -0.387820       -10.5531
  15   2.0000      -0.370476       -10.0812
  16   2.0000      -0.370476       -10.0812
  17   2.0000      -0.364103        -9.9077
  18   2.0000      -0.329208        -8.9582
  19   0.0000      -0.050807        -1.3825
  20   0.0000       0.037760         1.0275
  21   0.0000       0.037760         1.0275
  22   0.0000       0.060059         1.6343
  23   0.0000       0.104815         2.8522

MULLIKEN ATOMIC CHARGES
-----------------------
   0 Au:    0.000003
   1 Au:   -0.000003
Sum of atomic charges:    0.0000000

LOEWDIN ATOMIC CHARGES
----------------------
   0 Au:    0.000000
   1 Au:   -0.000000

  Mayer bond orders larger than 0.100000
B(  0-Au,  1-Au) :   1.1099

FINAL SINGLE POINT ENERGY      -271.407415868814

DIPOLE MOMENT
-------------
                                X             Y             Z
Electronic contribution:     -0.00000      -0.00000      -0.00000
Nuclear contribution   :      0.00000       0.00000       0.00000
                        -----------------------------------------
Total Dipole Moment    :     -0.00000      -0.00000      -0.00000
                        -----------------------------------------
Magnitude (a.u.)       :      0.00000
Magnitude (Debye)      :      0.00000

Rotational constants in cm-1:     0.000000     0.027852     0.027852
Rotational constants in MHz :     0.000000   834.974952   834.974952

                             ****ORCA TERMINATED NORMALLY****
TOTAL RUN TIME: 0 days 0 hours 0 minutes 7 seconds 827 msec
