                         Program Version 4.2.0 -  RELEASE  -
|  1> #
|  2> # Au03N0_LIN wB97X-V/Def2-TZVPPD
|  3> #
|  4> ! wb97x-v def2-tzvppd def2/jk grid4 nofinalgrid
|  5>
|  6> *xyz 0 2
|  7> Au       0.000000    0.000000    0.000000
|  8> Au       0.000000    0.000000    2.547414
|  9> Au       0.000000    0.000000   -2.547414
| 10> *
| 11>
| 12> %maxcore 5000
| 13>
| 14> %pal
| 15> nprocs = 24
| 16> end
| 17>
| 18>
| 19>                          ****END OF INPUT****

CARTESIAN COORDINATES (ANGSTROEM)
---------------------------------
  Au     0.000000    0.000000    0.000000
  Au     0.000000    0.000000    2.547414
  Au     0.000000    0.000000   -2.547414

 Total Charge           Charge          ....    0
 Multiplicity           Mult            ....    2
 Number of Electrons    NEL             ....   57
 Basis Dimension        Dim             ....  177

ORBITAL ENERGIES
----------------
                 SPIN UP ORBITALS
  NO   OCC          E(Eh)            E(eV)
   0   1.0000      -4.348384      -118.3255
   1   1.0000      -4.275872      -116.3524
   2   1.0000      -4.275868      -116.3523
   3   1.0000      -2.540683       -69.1355
   4   1.0000      -2.534793       -68.9752
   5   1.0000      -2.503842       -68.1330
   6   1.0000      -2.465275       -67.0835
   7   1.0000      -2.464713       -67.0682
   8   1.0000      -2.456498       -66.8447
   9   1.0000      -2.456481       -66.8442
  10   1.0000      -2.445020       -66.5324
  11   1.0000      -2.445000       -66.5318
  12   1.0000      -0.552237       -15.0271
  13   1.0000      -0.527871       -14.3641
  14   1.0000      -0.502498       -13.6737
  15   1.0000      -0.474189       -12.9033
  16   1.0000      -0.473442       -12.8830
  17   1.0000      -0.441299       -12.0084
  18   1.0000      -0.438514       -11.9326
  19   1.0000      -0.430168       -11.7055
  20   1.0000      -0.416883       -11.3440
  21   1.0000      -0.416753       -11.3404
  22   1.0000      -0.416732       -11.3399
  23   1.0000      -0.416243       -11.3265
  24   1.0000      -0.415576       -11.3084
  25   1.0000      -0.406376       -11.0581
  26   1.0000      -0.400692       -10.9034
  27   1.0000      -0.375594       -10.2204
  28   1.0000      -0.309981        -8.4350
  29   0.0000      -0.048007        -1.3063
  30   0.0000       0.015830         0.4307
  31   0.0000       0.019329         0.5260
  32   0.0000       0.041339         1.1249
  33   0.0000       0.062559         1.7023

                 SPIN DOWN ORBITALS
  NO   OCC          E(Eh)            E(eV)
   0   1.0000      -4.330384      -117.8357
   1   1.0000      -4.269285      -116.1731
   2   1.0000      -4.269285      -116.1731
   3   1.0000      -2.510348       -68.3101
   4   1.0000      -2.504334       -68.1464
   5   1.0000      -2.497198       -67.9522
   6   1.0000      -2.454208       -66.7824
   7   1.0000      -2.453046       -66.7508
   8   1.0000      -2.445448       -66.5440
   9   1.0000      -2.445301       -66.5400
  10   1.0000      -2.442545       -66.4650
  11   1.0000      -2.442526       -66.4645
  12   1.0000      -0.545674       -14.8485
  13   1.0000      -0.494454       -13.4548
  14   1.0000      -0.463411       -12.6101
  15   1.0000      -0.463331       -12.6079
  16   1.0000      -0.448010       -12.1910
  17   1.0000      -0.435442       -11.8490
  18   1.0000      -0.426663       -11.6101
  19   1.0000      -0.413176       -11.2431
  20   1.0000      -0.412815       -11.2333
  21   1.0000      -0.412419       -11.2225
  22   1.0000      -0.411644       -11.2014
  23   1.0000      -0.402113       -10.9421
  24   1.0000      -0.394746       -10.7416
  25   1.0000      -0.385143       -10.4803
  26   1.0000      -0.374006       -10.1772
  27   1.0000      -0.309684        -8.4269
  28   0.0000      -0.160091        -4.3563
  29   0.0000      -0.043831        -1.1927
  30   0.0000       0.018536         0.5044
  31   0.0000       0.019278         0.5246
  32   0.0000       0.041923         1.1408

MULLIKEN ATOMIC CHARGES AND SPIN POPULATIONS
--------------------------------------------
   0 Au:    0.090316    0.605346
   1 Au:   -0.045159    0.197328
   2 Au:   -0.045157    0.197326
Sum of atomic charges         :   -0.0000000

LOEWDIN ATOMIC CHARGES AND SPIN POPULATIONS
-------------------------------------------
   0 Au:   -0.119451    0.578976
   1 Au:    0.059725    0.210512
   2 Au:    0.059725    0.210512

  Mayer bond orders larger than 0.100000
B(  0-Au,  1-Au) :   1.1159 B(  0-Au,  2-Au) :   1.1159 B(  1-Au,  2-Au) :   0.2092

FINAL SINGLE POINT ENERGY      -407.057954526910

DIPOLE MOMENT
-------------
                                X             Y             Z
Electronic contribution:     -0.00000      -0.00000      -0.00000
Nuclear contribution   :      0.00000       0.00000       0.00000
                        -----------------------------------------
Total Dipole Moment    :     -0.00000      -0.00000      -0.00000
                        -----------------------------------------
Magnitude (a.u.)       :      0.00000
Magnitude (Debye)      :      0.00000

Rotational constants in cm-1:     0.000000     0.006594     0.006594
Rotational constants in MHz :     0.000000   197.695224   197.695224

                             ****ORCA TERMINATED NORMALLY****
TOTAL RUN TIME: 0 days 0 hours 0 minutes 14 seconds 363 msec
