                         Program Version 4.2.0 -  RELEASE  -
|  1> #
|  2> # Au03C1_D3H wB97X-V/Def2-TZVPPD
|  3> #
|  4> ! wb97x-v def2-tzvppd def2/jk grid4 nofinalgrid
|  5>
|  6> *xyz 1 1
|  7> Au       0.000000    1.501400   -0.000000
|  8> Au       1.300251   -0.750700   -0.000000
|  9> Au      -1.300251   -0.750700   -0.000000
| 10> *
| 11>
| 12> %maxcore 5000
| 13>
| 14> %pal
| 15> nprocs = 24
| 16> end
| 17>
| 18>
| 19>                          ****END OF INPUT****

CARTESIAN COORDINATES (ANGSTROEM)
---------------------------------
  Au     0.000000    1.501400   -0.000000
  Au     1.300251   -0.750700   -0.000000
  Au    -1.300251   -0.750700   -0.000000

 Total Charge           Charge          ....    1
 Multiplicity           Mult            ....    1
 Number of Electrons    NEL             ....   56
 Basis Dimension        Dim             ....  177

ORBITAL ENERGIES
----------------

  NO   OCC          E(Eh)            E(eV)
   0   2.0000      -4.456226      -121.2601
   1   2.0000      -4.455718      -121.2463
   2   2.0000      -4.455717      -121.2462
   3   2.0000      -2.648929       -72.0810
   4   2.0000      -2.642099       -71.8952
   5   2.0000      -2.642094       -71.8950
   6   2.0000      -2.636120       -71.7325
   7   2.0000      -2.636108       -71.7321
   8   2.0000      -2.635020       -71.7025
   9   2.0000      -2.633661       -71.6656
  10   2.0000      -2.632746       -71.6407
  11   2.0000      -2.632744       -71.6406
  12   2.0000      -0.703567       -19.1450
  13   2.0000      -0.667906       -18.1746
  14   2.0000      -0.667903       -18.1746
  15   2.0000      -0.660111       -17.9625
  16   2.0000      -0.634221       -17.2580
  17   2.0000      -0.626990       -17.0613
  18   2.0000      -0.626988       -17.0612
  19   2.0000      -0.593063       -16.1381
  20   2.0000      -0.593062       -16.1380
  21   2.0000      -0.586226       -15.9520
  22   2.0000      -0.586217       -15.9518
  23   2.0000      -0.585861       -15.9421
  24   2.0000      -0.583296       -15.8723
  25   2.0000      -0.583295       -15.8723
  26   2.0000      -0.559216       -15.2171
  27   2.0000      -0.549302       -14.9473
  28   0.0000      -0.231992        -6.3128
  29   0.0000      -0.231992        -6.3128
  30   0.0000      -0.140908        -3.8343
  31   0.0000      -0.107525        -2.9259
  32   0.0000      -0.091866        -2.4998

MULLIKEN ATOMIC CHARGES
-----------------------
   0 Au:    0.333358
   1 Au:    0.333321
   2 Au:    0.333321
Sum of atomic charges:    1.0000000

LOEWDIN ATOMIC CHARGES
----------------------
   0 Au:    0.333332
   1 Au:    0.333334
   2 Au:    0.333334

  Mayer bond orders larger than 0.100000
B(  0-Au,  1-Au) :   0.6170 B(  0-Au,  2-Au) :   0.6170 B(  1-Au,  2-Au) :   0.6171

FINAL SINGLE POINT ENERGY      -406.875112007037

DIPOLE MOMENT
-------------
                                X             Y             Z
Electronic contribution:     -0.00000      -0.00003       0.00000
Nuclear contribution   :      0.00000       0.00000      -0.00000
                        -----------------------------------------
Total Dipole Moment    :     -0.00000      -0.00003       0.00000
                        -----------------------------------------
Magnitude (a.u.)       :      0.00003
Magnitude (Debye)      :      0.00007

Rotational constants in cm-1:     0.025312     0.025312     0.012656
Rotational constants in MHz :   758.824167   758.823632   379.411950

                             ****ORCA TERMINATED NORMALLY****
TOTAL RUN TIME: 0 days 0 hours 0 minutes 14 seconds 588 msec
