                         Program Version 4.2.0 -  RELEASE  -
|  1> #
|  2> # Au03N0_D3H wB97X-V/Def2-TZVPPD
|  3> #
|  4> ! wb97x-v def2-tzvppd def2/jk grid4 nofinalgrid
|  5>
|  6> *xyz 0 2
|  7> Au       0.000000    1.515176   -0.000000
|  8> Au       1.312181   -0.757588    0.000000
|  9> Au      -1.312181   -0.757588   -0.000000
| 10> *
| 11>
| 12> %maxcore 5000
| 13>
| 14> %pal
| 15> nprocs = 24
| 16> end
| 17>
| 18>
| 19>                          ****END OF INPUT****

CARTESIAN COORDINATES (ANGSTROEM)
---------------------------------
  Au     0.000000    1.515176   -0.000000
  Au     1.312181   -0.757588    0.000000
  Au    -1.312181   -0.757588   -0.000000

 Total Charge           Charge          ....    0
 Multiplicity           Mult            ....    2
 Number of Electrons    NEL             ....   57
 Basis Dimension        Dim             ....  177

ORBITAL ENERGIES
----------------
                 SPIN UP ORBITALS
  NO   OCC          E(Eh)            E(eV)
   0   1.0000      -4.270841      -116.2155
   1   1.0000      -4.250958      -115.6744
   2   1.0000      -4.250654      -115.6662
   3   1.0000      -2.458192       -66.8908
   4   1.0000      -2.451597       -66.7114
   5   1.0000      -2.449521       -66.6549
   6   1.0000      -2.438068       -66.3432
   7   1.0000      -2.434138       -66.2363
   8   1.0000      -2.431794       -66.1725
   9   1.0000      -2.429066       -66.0982
  10   1.0000      -2.427238       -66.0485
  11   1.0000      -2.426807       -66.0368
  12   1.0000      -0.506232       -13.7753
  13   1.0000      -0.474015       -12.8986
  14   1.0000      -0.462957       -12.5977
  15   1.0000      -0.461843       -12.5674
  16   1.0000      -0.439359       -11.9556
  17   1.0000      -0.435545       -11.8518
  18   1.0000      -0.423800       -11.5322
  19   1.0000      -0.399418       -10.8687
  20   1.0000      -0.397971       -10.8293
  21   1.0000      -0.390194       -10.6177
  22   1.0000      -0.389296       -10.5933
  23   1.0000      -0.388378       -10.5683
  24   1.0000      -0.382864       -10.4183
  25   1.0000      -0.378681       -10.3044
  26   1.0000      -0.377002       -10.2587
  27   1.0000      -0.354923        -9.6580
  28   1.0000      -0.235729        -6.4145
  29   0.0000      -0.071249        -1.9388
  30   0.0000       0.017340         0.4718
  31   0.0000       0.032710         0.8901
  32   0.0000       0.053582         1.4580
  33   0.0000       0.057664         1.5691

                 SPIN DOWN ORBITALS
  NO   OCC          E(Eh)            E(eV)
   0   1.0000      -4.270403      -116.2036
   1   1.0000      -4.248901      -115.6185
   2   1.0000      -4.248610      -115.6106
   3   1.0000      -2.457333       -66.8674
   4   1.0000      -2.450802       -66.6897
   5   1.0000      -2.449513       -66.6546
   6   1.0000      -2.435357       -66.2694
   7   1.0000      -2.432160       -66.1824
   8   1.0000      -2.430260       -66.1307
   9   1.0000      -2.426038       -66.0159
  10   1.0000      -2.425684       -66.0062
  11   1.0000      -2.425203       -65.9931
  12   1.0000      -0.499829       -13.6010
  13   1.0000      -0.471382       -12.8270
  14   1.0000      -0.461001       -12.5445
  15   1.0000      -0.457272       -12.4430
  16   1.0000      -0.434757       -11.8303
  17   1.0000      -0.434436       -11.8216
  18   1.0000      -0.420994       -11.4558
  19   1.0000      -0.398467       -10.8428
  20   1.0000      -0.395491       -10.7619
  21   1.0000      -0.388551       -10.5730
  22   1.0000      -0.386718       -10.5231
  23   1.0000      -0.385699       -10.4954
  24   1.0000      -0.376874       -10.2553
  25   1.0000      -0.373212       -10.1556
  26   1.0000      -0.365739        -9.9523
  27   1.0000      -0.346971        -9.4416
  28   0.0000      -0.063192        -1.7195
  29   0.0000      -0.039987        -1.0881
  30   0.0000       0.021136         0.5751
  31   0.0000       0.048368         1.3162
  32   0.0000       0.065346         1.7782

MULLIKEN ATOMIC CHARGES AND SPIN POPULATIONS
--------------------------------------------
   0 Au:    0.141970    0.023538
   1 Au:   -0.071011    0.488281
   2 Au:   -0.070959    0.488181
Sum of atomic charges         :   -0.0000000

LOEWDIN ATOMIC CHARGES AND SPIN POPULATIONS
-------------------------------------------
   0 Au:    0.084379    0.155119
   1 Au:   -0.042206    0.422475
   2 Au:   -0.042173    0.422407

  Mayer bond orders larger than 0.100000
B(  0-Au,  1-Au) :   0.6584 B(  0-Au,  2-Au) :   0.6584 B(  1-Au,  2-Au) :   0.5409

FINAL SINGLE POINT ENERGY      -407.108103796975

DIPOLE MOMENT
-------------
                                X             Y             Z
Electronic contribution:     -0.00012       0.51704      -0.00000
Nuclear contribution   :      0.00000       0.00000       0.00000
                        -----------------------------------------
Total Dipole Moment    :     -0.00012       0.51704      -0.00000
                        -----------------------------------------
Magnitude (a.u.)       :      0.51704
Magnitude (Debye)      :      1.31422

Rotational constants in cm-1:     0.024853     0.024853     0.012427
Rotational constants in MHz :   745.088417   745.088311   372.544182

                             ****ORCA TERMINATED NORMALLY****
TOTAL RUN TIME: 0 days 0 hours 0 minutes 14 seconds 447 msec
