                         Program Version 4.2.0 -  RELEASE  -
|  1> #
|  2> # Au03C1_LIN wB97X-V/Def2-TZVPPD
|  3> #
|  4> ! wb97x-v def2-tzvppd def2/jk grid4 nofinalgrid
|  5>
|  6> *xyz 1 1
|  7> Au       0.000000    0.000000    0.000000
|  8> Au       0.000000    0.000000    2.576864
|  9> Au       0.000000    0.000000   -2.576864
| 10> *
| 11>
| 12> %maxcore 5000
| 13>
| 14> %pal
| 15> nprocs = 24
| 16> end
| 17>
| 18>
| 19>                          ****END OF INPUT****

CARTESIAN COORDINATES (ANGSTROEM)
---------------------------------
  Au     0.000000    0.000000    0.000000
  Au     0.000000    0.000000    2.576864
  Au     0.000000    0.000000   -2.576864

 Total Charge           Charge          ....    1
 Multiplicity           Mult            ....    1
 Number of Electrons    NEL             ....   56
 Basis Dimension        Dim             ....  177

ORBITAL ENERGIES
----------------

  NO   OCC          E(Eh)            E(eV)
   0   2.0000      -4.575396      -124.5028
   1   2.0000      -4.515237      -122.8658
   2   2.0000      -4.515234      -122.8658
   3   2.0000      -2.761392       -75.1413
   4   2.0000      -2.756635       -75.0118
   5   2.0000      -2.727696       -74.2244
   6   2.0000      -2.702984       -73.5519
   7   2.0000      -2.702068       -73.5270
   8   2.0000      -2.695489       -73.3480
   9   2.0000      -2.695255       -73.3416
  10   2.0000      -2.675865       -72.8140
  11   2.0000      -2.675842       -72.8134
  12   2.0000      -0.775521       -21.1030
  13   2.0000      -0.719211       -19.5707
  14   2.0000      -0.697864       -18.9898
  15   2.0000      -0.692109       -18.8333
  16   2.0000      -0.691283       -18.8108
  17   2.0000      -0.672313       -18.2946
  18   2.0000      -0.654750       -17.8167
  19   2.0000      -0.645180       -17.5562
  20   2.0000      -0.642710       -17.4890
  21   2.0000      -0.641603       -17.4589
  22   2.0000      -0.641291       -17.4504
  23   2.0000      -0.627968       -17.0879
  24   2.0000      -0.627869       -17.0852
  25   2.0000      -0.608133       -16.5481
  26   2.0000      -0.582933       -15.8624
  27   2.0000      -0.509913       -13.8754
  28   0.0000      -0.422329       -11.4921
  29   0.0000      -0.232557        -6.3282
  30   0.0000      -0.148030        -4.0281
  31   0.0000      -0.142722        -3.8837
  32   0.0000      -0.122652        -3.3375

MULLIKEN ATOMIC CHARGES
-----------------------
   0 Au:    0.336804
   1 Au:    0.331597
   2 Au:    0.331599
Sum of atomic charges:    1.0000000

LOEWDIN ATOMIC CHARGES
----------------------
   0 Au:    0.135961
   1 Au:    0.432020
   2 Au:    0.432020

  Mayer bond orders larger than 0.100000
B(  0-Au,  1-Au) :   1.3472 B(  0-Au,  2-Au) :   1.3472 B(  1-Au,  2-Au) :   0.4558

FINAL SINGLE POINT ENERGY      -406.633449106502

DIPOLE MOMENT
-------------
                                X             Y             Z
Electronic contribution:      0.00000      -0.00000       0.00000
Nuclear contribution   :      0.00000       0.00000       0.00000
                        -----------------------------------------
Total Dipole Moment    :      0.00000      -0.00000       0.00000
                        -----------------------------------------
Magnitude (a.u.)       :      0.00000
Magnitude (Debye)      :      0.00000

Rotational constants in cm-1:     0.000000     0.006445     0.006445
Rotational constants in MHz :     0.000000   193.202279   193.202279

                             ****ORCA TERMINATED NORMALLY****
TOTAL RUN TIME: 0 days 0 hours 0 minutes 12 seconds 713 msec
