                         Program Version 4.2.0 -  RELEASE  -
|  1> #
|  2> # Au04C2_NH3_A wB97X-V/Def2-TZVPPD
|  3> #
|  4> ! wb97x-v def2-tzvppd def2/jk grid4 nofinalgrid
|  5>
|  6> *xyz 2 1
|  7> Au      -0.274490    1.572639   -0.000000
|  8> Au       1.635934   -0.418177    0.000000
|  9> Au      -0.639028   -0.815642    1.333593
| 10> Au      -0.639028   -0.815642   -1.333593
| 11> N       -0.639028    3.654013   -0.000000
| 12> H       -0.235750    4.112347    0.824759
| 13> H       -0.235750    4.112347   -0.824759
| 14> H       -1.642949    3.866239   -0.000000
| 15> *
| 16>
| 17> %maxcore 5000
| 18>
| 19> %pal
| 20> nprocs = 24
| 21> end
| 22>
| 23>
| 24>                          ****END OF INPUT****

CARTESIAN COORDINATES (ANGSTROEM)
---------------------------------
  Au    -0.274490    1.572639   -0.000000
  Au     1.635934   -0.418177    0.000000
  Au    -0.639028   -0.815642    1.333593
  Au    -0.639028   -0.815642   -1.333593
  N     -0.639028    3.654013   -0.000000
  H     -0.235750    4.112347    0.824759
  H     -0.235750    4.112347   -0.824759
  H     -1.642949    3.866239   -0.000000

 Total Charge           Charge          ....    2
 Multiplicity           Mult            ....    1
 Number of Electrons    NEL             ....   84
 Basis Dimension        Dim             ....  324

ORBITAL ENERGIES
----------------

  NO   OCC          E(Eh)            E(eV)
   0   2.0000     -14.770641      -401.9296
   1   2.0000      -4.607391      -125.3735
   2   2.0000      -4.607055      -125.3643
   3   2.0000      -4.607045      -125.3641
   4   2.0000      -4.601375      -125.2098
   5   2.0000      -2.798441       -76.1495
   6   2.0000      -2.792407       -75.9853
   7   2.0000      -2.792404       -75.9852
   8   2.0000      -2.789899       -75.9170
   9   2.0000      -2.787529       -75.8525
  10   2.0000      -2.787524       -75.8524
  11   2.0000      -2.785641       -75.8012
  12   2.0000      -2.785632       -75.8009
  13   2.0000      -2.785485       -75.7969
  14   2.0000      -2.785136       -75.7874
  15   2.0000      -2.777286       -75.5738
  16   2.0000      -2.777280       -75.5736
  17   2.0000      -1.342847       -36.5407
  18   2.0000      -0.929325       -25.2882
  19   2.0000      -0.929315       -25.2880
  20   2.0000      -0.888714       -24.1831
  21   2.0000      -0.838917       -22.8281
  22   2.0000      -0.818429       -22.2706
  23   2.0000      -0.818389       -22.2695
  24   2.0000      -0.807235       -21.9660
  25   2.0000      -0.800300       -21.7773
  26   2.0000      -0.800297       -21.7772
  27   2.0000      -0.782561       -21.2946
  28   2.0000      -0.775207       -21.0945
  29   2.0000      -0.775207       -21.0944
  30   2.0000      -0.741531       -20.1781
  31   2.0000      -0.741513       -20.1776
  32   2.0000      -0.740329       -20.1454
  33   2.0000      -0.738860       -20.1054
  34   2.0000      -0.738858       -20.1053
  35   2.0000      -0.736383       -20.0380
  36   2.0000      -0.734293       -19.9811
  37   2.0000      -0.734283       -19.9809
  38   2.0000      -0.703403       -19.1406
  39   2.0000      -0.703135       -19.1333
  40   2.0000      -0.703119       -19.1328
  41   2.0000      -0.693523       -18.8717
  42   0.0000      -0.371302       -10.1036
  43   0.0000      -0.371284       -10.1031
  44   0.0000      -0.327692        -8.9170
  45   0.0000      -0.234939        -6.3930
  46   0.0000      -0.226002        -6.1498

MULLIKEN ATOMIC CHARGES
-----------------------
   0 Au:    0.256866
   1 Au:    0.436502
   2 Au:    0.436563
   3 Au:    0.436560
   4 N :   -0.324691
   5 H :    0.252720
   6 H :    0.252718
   7 H :    0.252762
Sum of atomic charges:    2.0000000

LOEWDIN ATOMIC CHARGES
----------------------
   0 Au:    0.410960
   1 Au:    0.458518
   2 Au:    0.458554
   3 Au:    0.458553
   4 N :    0.397411
   5 H :   -0.061333
   6 H :   -0.061333
   7 H :   -0.061330

  Mayer bond orders larger than 0.100000
B(  0-Au,  1-Au) :   0.3179 B(  0-Au,  2-Au) :   0.3178 B(  0-Au,  3-Au) :   0.3178
B(  0-Au,  4-N ) :   0.6703 B(  1-Au,  2-Au) :   0.4804 B(  1-Au,  3-Au) :   0.4804
B(  2-Au,  3-Au) :   0.4802 B(  4-N ,  5-H ) :   0.9535 B(  4-N ,  6-H ) :   0.9535
B(  4-N ,  7-H ) :   0.9534

FINAL SINGLE POINT ENERGY      -598.840335050920

DIPOLE MOMENT
-------------
                                X             Y             Z
Electronic contribution:     10.10648     -57.79224       0.00000
Nuclear contribution   :    -10.53350      60.23199       0.00000
                        -----------------------------------------
Total Dipole Moment    :     -0.42702       2.43974       0.00000
                        -----------------------------------------
Magnitude (a.u.)       :      2.47683
Magnitude (Debye)      :      6.29560

Rotational constants in cm-1:     0.012010     0.009744     0.009743
Rotational constants in MHz :   360.039216   292.121240   292.077350

                             ****ORCA TERMINATED NORMALLY****
TOTAL RUN TIME: 0 days 0 hours 0 minutes 47 seconds 632 msec
