                         Program Version 4.2.0 -  RELEASE  -
|  1> #
|  2> # Au04C2_H_E wB97X-V/Def2-TZVPPD
|  3> #
|  4> ! wb97x-v def2-tzvppd def2/jk grid4 nofinalgrid
|  5>
|  6> *xyz 2 2
|  7> Au       0.000000    1.337591    1.056475
|  8> Au      -0.000000   -1.337591    1.056475
|  9> Au      -1.306954    0.000000   -1.070288
| 10> Au       1.306954   -0.000000   -1.070288
| 11> H       -0.000000    0.000000    2.182427
| 12> *
| 13>
| 14> %maxcore 5000
| 15>
| 16> %pal
| 17> nprocs = 24
| 18> end
| 19>
| 20>
| 21>                          ****END OF INPUT****

CARTESIAN COORDINATES (ANGSTROEM)
---------------------------------
  Au     0.000000    1.337591    1.056475
  Au    -0.000000   -1.337591    1.056475
  Au    -1.306954    0.000000   -1.070288
  Au     1.306954   -0.000000   -1.070288
  H     -0.000000    0.000000    2.182427

 Total Charge           Charge          ....    2
 Multiplicity           Mult            ....    2
 Number of Electrons    NEL             ....   75
 Basis Dimension        Dim             ....  253

ORBITAL ENERGIES
----------------
                 SPIN UP ORBITALS
  NO   OCC          E(Eh)            E(eV)
   0   1.0000      -4.668508      -127.0366
   1   1.0000      -4.668278      -127.0303
   2   1.0000      -4.636729      -126.1718
   3   1.0000      -4.636415      -126.1633
   4   1.0000      -2.859614       -77.8141
   5   1.0000      -2.854555       -77.6764
   6   1.0000      -2.850460       -77.5650
   7   1.0000      -2.848716       -77.5175
   8   1.0000      -2.843363       -77.3718
   9   1.0000      -2.842851       -77.3579
  10   1.0000      -2.825453       -76.8845
  11   1.0000      -2.819808       -76.7309
  12   1.0000      -2.817664       -76.6725
  13   1.0000      -2.815793       -76.6216
  14   1.0000      -2.815350       -76.6096
  15   1.0000      -2.814966       -76.5991
  16   1.0000      -0.964269       -26.2391
  17   1.0000      -0.907410       -24.6919
  18   1.0000      -0.863052       -23.4848
  19   1.0000      -0.862527       -23.4705
  20   1.0000      -0.856280       -23.3006
  21   1.0000      -0.842610       -22.9286
  22   1.0000      -0.835812       -22.7436
  23   1.0000      -0.833628       -22.6842
  24   1.0000      -0.819145       -22.2901
  25   1.0000      -0.807456       -21.9720
  26   1.0000      -0.801929       -21.8216
  27   1.0000      -0.796788       -21.6817
  28   1.0000      -0.793985       -21.6054
  29   1.0000      -0.792126       -21.5548
  30   1.0000      -0.779059       -21.1993
  31   1.0000      -0.776645       -21.1336
  32   1.0000      -0.767241       -20.8777
  33   1.0000      -0.766285       -20.8517
  34   1.0000      -0.764954       -20.8155
  35   1.0000      -0.754614       -20.5341
  36   1.0000      -0.742753       -20.2113
  37   1.0000      -0.662333       -18.0230
  38   0.0000      -0.413342       -11.2476
  39   0.0000      -0.399682       -10.8759
  40   0.0000      -0.337566        -9.1856
  41   0.0000      -0.274632        -7.4731
  42   0.0000      -0.274245        -7.4626

                 SPIN DOWN ORBITALS
  NO   OCC          E(Eh)            E(eV)
   0   1.0000      -4.664283      -126.9216
   1   1.0000      -4.664082      -126.9161
   2   1.0000      -4.635573      -126.1404
   3   1.0000      -4.635269      -126.1321
   4   1.0000      -2.852240       -77.6134
   5   1.0000      -2.846934       -77.4690
   6   1.0000      -2.844656       -77.4070
   7   1.0000      -2.843720       -77.3815
   8   1.0000      -2.841323       -77.3163
   9   1.0000      -2.840886       -77.3044
  10   1.0000      -2.824290       -76.8528
  11   1.0000      -2.818245       -76.6883
  12   1.0000      -2.815642       -76.6175
  13   1.0000      -2.815049       -76.6014
  14   1.0000      -2.814698       -76.5918
  15   1.0000      -2.813985       -76.5724
  16   1.0000      -0.942116       -25.6363
  17   1.0000      -0.899347       -24.4725
  18   1.0000      -0.859240       -23.3811
  19   1.0000      -0.859005       -23.3747
  20   1.0000      -0.852156       -23.1883
  21   1.0000      -0.838390       -22.8138
  22   1.0000      -0.832840       -22.6627
  23   1.0000      -0.829816       -22.5804
  24   1.0000      -0.810591       -22.0573
  25   1.0000      -0.798584       -21.7306
  26   1.0000      -0.794899       -21.6303
  27   1.0000      -0.794770       -21.6268
  28   1.0000      -0.787954       -21.4413
  29   1.0000      -0.786278       -21.3957
  30   1.0000      -0.775920       -21.1139
  31   1.0000      -0.770184       -20.9578
  32   1.0000      -0.766062       -20.8456
  33   1.0000      -0.765559       -20.8319
  34   1.0000      -0.751865       -20.4593
  35   1.0000      -0.751625       -20.4528
  36   1.0000      -0.737188       -20.0599
  37   0.0000      -0.451860       -12.2957
  38   0.0000      -0.409340       -11.1387
  39   0.0000      -0.393911       -10.7189
  40   0.0000      -0.316801        -8.6206
  41   0.0000      -0.267250        -7.2722

MULLIKEN ATOMIC CHARGES AND SPIN POPULATIONS
--------------------------------------------
   0 Au:    0.491964    0.154796
   1 Au:    0.491964    0.154797
   2 Au:    0.439381    0.226532
   3 Au:    0.439391    0.226534
   4 H :    0.137301    0.237340
Sum of atomic charges         :    2.0000000

LOEWDIN ATOMIC CHARGES AND SPIN POPULATIONS
-------------------------------------------
   0 Au:    0.578184    0.262399
   1 Au:    0.578184    0.262399
   2 Au:    0.483948    0.159512
   3 Au:    0.483949    0.159512
   4 H :   -0.124264    0.156176

  Mayer bond orders larger than 0.100000
B(  0-Au,  1-Au) :   0.5353 B(  0-Au,  2-Au) :   0.3182 B(  0-Au,  3-Au) :   0.3182
B(  0-Au,  4-H ) :   0.4650 B(  1-Au,  2-Au) :   0.3182 B(  1-Au,  3-Au) :   0.3182
B(  1-Au,  4-H ) :   0.4650 B(  2-Au,  3-Au) :   0.6169

FINAL SINGLE POINT ENERGY      -542.719075252557

DIPOLE MOMENT
-------------
                                X             Y             Z
Electronic contribution:     -0.00000      -0.00000      -3.55934
Nuclear contribution   :      0.00000       0.00000       3.73018
                        -----------------------------------------
Total Dipole Moment    :     -0.00000      -0.00000       0.17084
                        -----------------------------------------
Magnitude (a.u.)       :      0.17084
Magnitude (Debye)      :      0.43424

Rotational constants in cm-1:     0.012236     0.010747     0.010533
Rotational constants in MHz :   366.830155   322.181581   315.756842

                             ****ORCA TERMINATED NORMALLY****
TOTAL RUN TIME: 0 days 0 hours 0 minutes 32 seconds 937 msec
