                         Program Version 4.2.0 -  RELEASE  -
|  1> #
|  2> # Au04C2_H_A wB97X-V/Def2-TZVPPD
|  3> #
|  4> ! wb97x-v def2-tzvppd def2/jk grid4 nofinalgrid
|  5>
|  6> *xyz 2 2
|  7> Au       0.000000    0.000000    1.750714
|  8> Au      -0.000000    1.549973   -0.597614
|  9> Au       1.342316   -0.774986   -0.597614
| 10> Au      -1.342316   -0.774986   -0.597614
| 11> H        0.000000    0.000000    3.328141
| 12> *
| 13>
| 14> %maxcore 5000
| 15>
| 16> %pal
| 17> nprocs = 24
| 18> end
| 19>
| 20>
| 21>                          ****END OF INPUT****

CARTESIAN COORDINATES (ANGSTROEM)
---------------------------------
  Au     0.000000    0.000000    1.750714
  Au    -0.000000    1.549973   -0.597614
  Au     1.342316   -0.774986   -0.597614
  Au    -1.342316   -0.774986   -0.597614
  H      0.000000    0.000000    3.328141

 Total Charge           Charge          ....    2
 Multiplicity           Mult            ....    2
 Number of Electrons    NEL             ....   75
 Basis Dimension        Dim             ....  253

ORBITAL ENERGIES
----------------
                 SPIN UP ORBITALS
  NO   OCC          E(Eh)            E(eV)
   0   1.0000      -4.719764      -128.4313
   1   1.0000      -4.719456      -128.4229
   2   1.0000      -4.719451      -128.4228
   3   1.0000      -4.618185      -125.6672
   4   1.0000      -2.914037       -79.2950
   5   1.0000      -2.909191       -79.1631
   6   1.0000      -2.909187       -79.1630
   7   1.0000      -2.905006       -79.0492
   8   1.0000      -2.905001       -79.0491
   9   1.0000      -2.904036       -79.0228
  10   1.0000      -2.885300       -78.5130
  11   1.0000      -2.884564       -78.4930
  12   1.0000      -2.884561       -78.4929
  13   1.0000      -2.807513       -76.3963
  14   1.0000      -2.789713       -75.9119
  15   1.0000      -2.789712       -75.9119
  16   1.0000      -0.957268       -26.0486
  17   1.0000      -0.924105       -25.1462
  18   1.0000      -0.924100       -25.1460
  19   1.0000      -0.917034       -24.9538
  20   1.0000      -0.878829       -23.9141
  21   1.0000      -0.878826       -23.9141
  22   1.0000      -0.878738       -23.9117
  23   1.0000      -0.852819       -23.2064
  24   1.0000      -0.852814       -23.2063
  25   1.0000      -0.845453       -23.0059
  26   1.0000      -0.845453       -23.0059
  27   1.0000      -0.838570       -22.8187
  28   1.0000      -0.836931       -22.7740
  29   1.0000      -0.835332       -22.7305
  30   1.0000      -0.835331       -22.7305
  31   1.0000      -0.824947       -22.4479
  32   1.0000      -0.786386       -21.3986
  33   1.0000      -0.754855       -20.5406
  34   1.0000      -0.754853       -20.5406
  35   1.0000      -0.747573       -20.3425
  36   1.0000      -0.747572       -20.3425
  37   1.0000      -0.656971       -17.8771
  38   0.0000      -0.439797       -11.9675
  39   0.0000      -0.439795       -11.9674
  40   0.0000      -0.353143        -9.6095
  41   0.0000      -0.290415        -7.9026
  42   0.0000      -0.278814        -7.5869

                 SPIN DOWN ORBITALS
  NO   OCC          E(Eh)            E(eV)
   0   1.0000      -4.708861      -128.1346
   1   1.0000      -4.708485      -128.1244
   2   1.0000      -4.708481      -128.1243
   3   1.0000      -4.619308      -125.6978
   4   1.0000      -2.896606       -78.8206
   5   1.0000      -2.890928       -78.6661
   6   1.0000      -2.890925       -78.6661
   7   1.0000      -2.886395       -78.5428
   8   1.0000      -2.886389       -78.5426
   9   1.0000      -2.884511       -78.4915
  10   1.0000      -2.881168       -78.4006
  11   1.0000      -2.880388       -78.3793
  12   1.0000      -2.880386       -78.3793
  13   1.0000      -2.809273       -76.4442
  14   1.0000      -2.790885       -75.9438
  15   1.0000      -2.790884       -75.9438
  16   1.0000      -0.954391       -25.9703
  17   1.0000      -0.912740       -24.8369
  18   1.0000      -0.876993       -23.8642
  19   1.0000      -0.876988       -23.8641
  20   1.0000      -0.872516       -23.7424
  21   1.0000      -0.868069       -23.6214
  22   1.0000      -0.868067       -23.6213
  23   1.0000      -0.843864       -22.9627
  24   1.0000      -0.843862       -22.9627
  25   1.0000      -0.839399       -22.8412
  26   1.0000      -0.839394       -22.8411
  27   1.0000      -0.836015       -22.7491
  28   1.0000      -0.832122       -22.6432
  29   1.0000      -0.827726       -22.5236
  30   1.0000      -0.827725       -22.5235
  31   1.0000      -0.788233       -21.4489
  32   1.0000      -0.752663       -20.4810
  33   1.0000      -0.752662       -20.4810
  34   1.0000      -0.746455       -20.3121
  35   1.0000      -0.746455       -20.3121
  36   1.0000      -0.657503       -17.8916
  37   0.0000      -0.560099       -15.2411
  38   0.0000      -0.432139       -11.7591
  39   0.0000      -0.432138       -11.7591
  40   0.0000      -0.353017        -9.6061
  41   0.0000      -0.288144        -7.8408

MULLIKEN ATOMIC CHARGES AND SPIN POPULATIONS
--------------------------------------------
   0 Au:    0.009220   -0.027640
   1 Au:    0.641400    0.341704
   2 Au:    0.641531    0.341670
   3 Au:    0.641525    0.341671
   4 H :    0.066325    0.002595
Sum of atomic charges         :    2.0000000

LOEWDIN ATOMIC CHARGES AND SPIN POPULATIONS
-------------------------------------------
   0 Au:    0.320035   -0.033849
   1 Au:    0.632706    0.344981
   2 Au:    0.632683    0.344949
   3 Au:    0.632683    0.344949
   4 H :   -0.218107   -0.001030

  Mayer bond orders larger than 0.100000
B(  0-Au,  1-Au) :   0.2728 B(  0-Au,  2-Au) :   0.2728 B(  0-Au,  3-Au) :   0.2728
B(  0-Au,  4-H ) :   0.9993 B(  1-Au,  2-Au) :   0.6812 B(  1-Au,  3-Au) :   0.6812
B(  2-Au,  3-Au) :   0.6811

FINAL SINGLE POINT ENERGY      -542.626643962881

DIPOLE MOMENT
-------------
                                X             Y             Z
Electronic contribution:     -0.00000       0.00004      -7.67553
Nuclear contribution   :      0.00000      -0.00000       5.68843
                        -----------------------------------------
Total Dipole Moment    :     -0.00000       0.00004      -1.98711
                        -----------------------------------------
Magnitude (a.u.)       :      1.98711
Magnitude (Debye)      :      5.05082

Rotational constants in cm-1:     0.011875     0.010977     0.010977
Rotational constants in MHz :   356.004762   329.094939   329.094872

                             ****ORCA TERMINATED NORMALLY****
TOTAL RUN TIME: 0 days 0 hours 0 minutes 34 seconds 509 msec
