                         Program Version 4.2.0 -  RELEASE  -
|  1> #
|  2> # Au04C2_NH3_F wB97X-V/Def2-TZVPPD
|  3> #
|  4> ! wb97x-v def2-tzvppd def2/jk grid4 nofinalgrid
|  5>
|  6> *xyz 2 1
|  7> Au       0.000000    1.548281   -0.453246
|  8> Au       1.340851   -0.774141   -0.453246
|  9> Au      -1.340851   -0.774141   -0.453246
| 10> Au       0.000000    0.000000    1.783664
| 11> N        0.000000    0.000000   -3.226055
| 12> H       -0.813891    0.469900   -3.635956
| 13> H        0.813891    0.469900   -3.635956
| 14> H       -0.000000   -0.939800   -3.635956
| 15> *
| 16>
| 17> %maxcore 5000
| 18>
| 19> %pal
| 20> nprocs = 24
| 21> end
| 22>
| 23>
| 24>                          ****END OF INPUT****

CARTESIAN COORDINATES (ANGSTROEM)
---------------------------------
  Au     0.000000    1.548281   -0.453246
  Au     1.340851   -0.774141   -0.453246
  Au    -1.340851   -0.774141   -0.453246
  Au     0.000000    0.000000    1.783664
  N      0.000000    0.000000   -3.226055
  H     -0.813891    0.469900   -3.635956
  H      0.813891    0.469900   -3.635956
  H     -0.000000   -0.939800   -3.635956

 Total Charge           Charge          ....    2
 Multiplicity           Mult            ....    1
 Number of Electrons    NEL             ....   84
 Basis Dimension        Dim             ....  324

ORBITAL ENERGIES
----------------

  NO   OCC          E(Eh)            E(eV)
   0   2.0000     -14.704937      -400.1417
   1   2.0000      -4.617020      -125.6355
   2   2.0000      -4.616705      -125.6269
   3   2.0000      -4.616704      -125.6269
   4   2.0000      -4.612099      -125.5016
   5   2.0000      -2.807879       -76.4063
   6   2.0000      -2.802239       -76.2528
   7   2.0000      -2.802237       -76.2528
   8   2.0000      -2.799282       -76.1723
   9   2.0000      -2.797831       -76.1328
  10   2.0000      -2.797824       -76.1327
  11   2.0000      -2.795770       -76.0768
  12   2.0000      -2.795377       -76.0661
  13   2.0000      -2.795376       -76.0661
  14   2.0000      -2.794488       -76.0419
  15   2.0000      -2.791356       -75.9566
  16   2.0000      -2.791354       -75.9566
  17   2.0000      -1.285847       -34.9897
  18   2.0000      -0.881928       -23.9985
  19   2.0000      -0.871631       -23.7183
  20   2.0000      -0.871631       -23.7183
  21   2.0000      -0.835814       -22.7437
  22   2.0000      -0.831572       -22.6282
  23   2.0000      -0.831571       -22.6282
  24   2.0000      -0.813970       -22.1493
  25   2.0000      -0.813969       -22.1492
  26   2.0000      -0.795499       -21.6466
  27   2.0000      -0.788315       -21.4511
  28   2.0000      -0.788311       -21.4510
  29   2.0000      -0.765163       -20.8212
  30   2.0000      -0.752013       -20.4633
  31   2.0000      -0.752010       -20.4632
  32   2.0000      -0.751497       -20.4493
  33   2.0000      -0.750361       -20.4184
  34   2.0000      -0.750357       -20.4183
  35   2.0000      -0.748246       -20.3608
  36   2.0000      -0.748239       -20.3606
  37   2.0000      -0.746815       -20.3219
  38   2.0000      -0.714505       -19.4427
  39   2.0000      -0.714458       -19.4414
  40   2.0000      -0.714457       -19.4414
  41   2.0000      -0.676937       -18.4204
  42   0.0000      -0.380864       -10.3638
  43   0.0000      -0.380863       -10.3638
  44   0.0000      -0.369964       -10.0672
  45   0.0000      -0.249726        -6.7954
  46   0.0000      -0.237120        -6.4524

MULLIKEN ATOMIC CHARGES
-----------------------
   0 Au:    0.482431
   1 Au:    0.482170
   2 Au:    0.482161
   3 Au:    0.416909
   4 N :   -0.419170
   5 H :    0.185225
   6 H :    0.185228
   7 H :    0.185046
Sum of atomic charges:    2.0000000

LOEWDIN ATOMIC CHARGES
----------------------
   0 Au:    0.471878
   1 Au:    0.471850
   2 Au:    0.471850
   3 Au:    0.476610
   4 N :    0.421650
   5 H :   -0.104611
   6 H :   -0.104611
   7 H :   -0.104616

  Mayer bond orders larger than 0.100000
B(  0-Au,  1-Au) :   0.4065 B(  0-Au,  2-Au) :   0.4065 B(  0-Au,  3-Au) :   0.4295
B(  1-Au,  2-Au) :   0.4067 B(  1-Au,  3-Au) :   0.4296 B(  2-Au,  3-Au) :   0.4296
B(  4-N ,  5-H ) :   1.0124 B(  4-N ,  6-H ) :   1.0124 B(  4-N ,  7-H ) :   1.0126

FINAL SINGLE POINT ENERGY      -598.773742781233

DIPOLE MOMENT
-------------
                                X             Y             Z
Electronic contribution:     -0.00000       0.00003      51.86083
Nuclear contribution   :      0.00000       0.00000     -53.58194
                        -----------------------------------------
Total Dipole Moment    :     -0.00000       0.00003      -1.72111
                        -----------------------------------------
Magnitude (a.u.)       :      1.72111
Magnitude (Debye)      :      4.37471

Rotational constants in cm-1:     0.011879     0.010264     0.010264
Rotational constants in MHz :   356.111583   307.700803   307.700796

                             ****ORCA TERMINATED NORMALLY****
TOTAL RUN TIME: 0 days 0 hours 0 minutes 49 seconds 146 msec
