                         Program Version 4.2.0 -  RELEASE  -
|  1> #
|  2> # Au04C2 wB97X-V/Def2-TZVPPD
|  3> #
|  4> ! wb97x-v def2-tzvppd def2/jk grid4 nofinalgrid
|  5>
|  6> *xyz 2 1
|  7> Au      -0.000000   -0.000044    1.659420
|  8> Au      -1.354966    0.782292   -0.553161
|  9> Au       1.354966    0.782292   -0.553161
| 10> Au       0.000000   -1.564540   -0.553099
| 11> *
| 12>
| 13> %maxcore 5000
| 14>
| 15> %pal
| 16> nprocs = 24
| 17> end
| 18>
| 19>
| 20>                          ****END OF INPUT****

CARTESIAN COORDINATES (ANGSTROEM)
---------------------------------
  Au    -0.000000   -0.000044    1.659420
  Au    -1.354966    0.782292   -0.553161
  Au     1.354966    0.782292   -0.553161
  Au     0.000000   -1.564540   -0.553099

 Total Charge           Charge          ....    2
 Multiplicity           Mult            ....    1
 Number of Electrons    NEL             ....   74
 Basis Dimension        Dim             ....  236

ORBITAL ENERGIES
----------------

  NO   OCC          E(Eh)            E(eV)
   0   2.0000      -4.642249      -126.3220
   1   2.0000      -4.641908      -126.3127
   2   2.0000      -4.641906      -126.3127
   3   2.0000      -4.641903      -126.3126
   4   2.0000      -2.833371       -77.1000
   5   2.0000      -2.827455       -76.9390
   6   2.0000      -2.827454       -76.9389
   7   2.0000      -2.827452       -76.9389
   8   2.0000      -2.823157       -76.8220
   9   2.0000      -2.823153       -76.8219
  10   2.0000      -2.821280       -76.7709
  11   2.0000      -2.821274       -76.7708
  12   2.0000      -2.821272       -76.7707
  13   2.0000      -2.820302       -76.7443
  14   2.0000      -2.820301       -76.7443
  15   2.0000      -2.820296       -76.7442
  16   2.0000      -0.905850       -24.6494
  17   2.0000      -0.857328       -23.3291
  18   2.0000      -0.857322       -23.3289
  19   2.0000      -0.857321       -23.3289
  20   2.0000      -0.839526       -22.8447
  21   2.0000      -0.839524       -22.8446
  22   2.0000      -0.815582       -22.1931
  23   2.0000      -0.815577       -22.1930
  24   2.0000      -0.815574       -22.1929
  25   2.0000      -0.777143       -21.1471
  26   2.0000      -0.777141       -21.1471
  27   2.0000      -0.777141       -21.1471
  28   2.0000      -0.777081       -21.1454
  29   2.0000      -0.777076       -21.1453
  30   2.0000      -0.777076       -21.1453
  31   2.0000      -0.774446       -21.0737
  32   2.0000      -0.774439       -21.0736
  33   2.0000      -0.768628       -20.9154
  34   2.0000      -0.740774       -20.1575
  35   2.0000      -0.740771       -20.1574
  36   2.0000      -0.740766       -20.1573
  37   0.0000      -0.402197       -10.9443
  38   0.0000      -0.402194       -10.9443
  39   0.0000      -0.402190       -10.9441
  40   0.0000      -0.264179        -7.1887
  41   0.0000      -0.253633        -6.9017

MULLIKEN ATOMIC CHARGES
-----------------------
   0 Au:    0.499875
   1 Au:    0.500008
   2 Au:    0.500010
   3 Au:    0.500107
Sum of atomic charges:    2.0000000

LOEWDIN ATOMIC CHARGES
----------------------
   0 Au:    0.499980
   1 Au:    0.500002
   2 Au:    0.500002
   3 Au:    0.500016

  Mayer bond orders larger than 0.100000
B(  0-Au,  1-Au) :   0.4242 B(  0-Au,  2-Au) :   0.4242 B(  0-Au,  3-Au) :   0.4242
B(  1-Au,  2-Au) :   0.4241 B(  1-Au,  3-Au) :   0.4241 B(  2-Au,  3-Au) :   0.4241

FINAL SINGLE POINT ENERGY      -542.170967699179

DIPOLE MOMENT
-------------
                                X             Y             Z
Electronic contribution:      0.00000       0.00002      -0.00002
Nuclear contribution   :      0.00000       0.00000       0.00000
                        -----------------------------------------
Total Dipole Moment    :      0.00000       0.00002      -0.00002
                        -----------------------------------------
Magnitude (a.u.)       :      0.00003
Magnitude (Debye)      :      0.00007

Rotational constants in cm-1:     0.011655     0.011655     0.011654
Rotational constants in MHz :   349.408482   349.408217   349.388110

                             ****ORCA TERMINATED NORMALLY****
TOTAL RUN TIME: 0 days 0 hours 0 minutes 27 seconds 389 msec
