                         Program Version 4.2.0 -  RELEASE  -
|  1> #
|  2> # Au04C2_H_F wB97X-V/Def2-TZVPPD
|  3> #
|  4> ! wb97x-v def2-tzvppd def2/jk grid4 nofinalgrid
|  5>
|  6> *xyz 2 2
|  7> Au       0.000000    1.567068   -0.568281
|  8> Au       1.357120   -0.783534   -0.568281
|  9> Au      -1.357120   -0.783534   -0.568281
| 10> Au       0.000000    0.000000    1.725922
| 11> H        0.000000    0.000000   -1.665144
| 12> *
| 13>
| 14> %maxcore 5000
| 15>
| 16> %pal
| 17> nprocs = 24
| 18> end
| 19>
| 20>
| 21>                          ****END OF INPUT****

CARTESIAN COORDINATES (ANGSTROEM)
---------------------------------
  Au     0.000000    1.567068   -0.568281
  Au     1.357120   -0.783534   -0.568281
  Au    -1.357120   -0.783534   -0.568281
  Au     0.000000    0.000000    1.725922
  H      0.000000    0.000000   -1.665144

 Total Charge           Charge          ....    2
 Multiplicity           Mult            ....    2
 Number of Electrons    NEL             ....   75
 Basis Dimension        Dim             ....  253

ORBITAL ENERGIES
----------------
                 SPIN UP ORBITALS
  NO   OCC          E(Eh)            E(eV)
   0   1.0000      -4.663536      -126.9013
   1   1.0000      -4.663271      -126.8941
   2   1.0000      -4.663270      -126.8940
   3   1.0000      -4.624192      -125.8307
   4   1.0000      -2.854744       -77.6815
   5   1.0000      -2.849415       -77.5365
   6   1.0000      -2.849414       -77.5365
   7   1.0000      -2.843908       -77.3867
   8   1.0000      -2.843276       -77.3695
   9   1.0000      -2.843273       -77.3694
  10   1.0000      -2.841961       -77.3337
  11   1.0000      -2.841956       -77.3336
  12   1.0000      -2.840349       -77.2898
  13   1.0000      -2.809097       -76.4394
  14   1.0000      -2.803153       -76.2777
  15   1.0000      -2.803152       -76.2776
  16   1.0000      -0.988548       -26.8998
  17   1.0000      -0.906839       -24.6763
  18   1.0000      -0.867034       -23.5932
  19   1.0000      -0.867033       -23.5932
  20   1.0000      -0.848100       -23.0780
  21   1.0000      -0.848098       -23.0779
  22   1.0000      -0.843078       -22.9413
  23   1.0000      -0.822854       -22.3910
  24   1.0000      -0.822854       -22.3910
  25   1.0000      -0.815157       -22.1816
  26   1.0000      -0.801619       -21.8132
  27   1.0000      -0.801614       -21.8130
  28   1.0000      -0.795650       -21.6508
  29   1.0000      -0.795650       -21.6507
  30   1.0000      -0.794778       -21.6270
  31   1.0000      -0.768642       -20.9158
  32   1.0000      -0.768635       -20.9156
  33   1.0000      -0.765099       -20.8194
  34   1.0000      -0.760969       -20.7070
  35   1.0000      -0.748817       -20.3763
  36   1.0000      -0.748813       -20.3762
  37   1.0000      -0.639315       -17.3966
  38   0.0000      -0.413924       -11.2635
  39   0.0000      -0.413924       -11.2634
  40   0.0000      -0.340236        -9.2583
  41   0.0000      -0.275182        -7.4881
  42   0.0000      -0.260649        -7.0926

                 SPIN DOWN ORBITALS
  NO   OCC          E(Eh)            E(eV)
   0   1.0000      -4.661105      -126.8351
   1   1.0000      -4.660860      -126.8284
   2   1.0000      -4.660860      -126.8284
   3   1.0000      -4.622664      -125.7891
   4   1.0000      -2.850699       -77.5715
   5   1.0000      -2.845861       -77.4398
   6   1.0000      -2.845860       -77.4398
   7   1.0000      -2.841021       -77.3081
   8   1.0000      -2.841020       -77.3081
   9   1.0000      -2.839943       -77.2788
  10   1.0000      -2.839576       -77.2688
  11   1.0000      -2.839427       -77.2647
  12   1.0000      -2.839426       -77.2647
  13   1.0000      -2.807239       -76.3889
  14   1.0000      -2.801985       -76.2459
  15   1.0000      -2.801983       -76.2458
  16   1.0000      -0.968872       -26.3644
  17   1.0000      -0.899683       -24.4816
  18   1.0000      -0.866159       -23.5694
  19   1.0000      -0.866159       -23.5694
  20   1.0000      -0.843423       -22.9507
  21   1.0000      -0.843423       -22.9507
  22   1.0000      -0.835971       -22.7479
  23   1.0000      -0.820707       -22.3326
  24   1.0000      -0.820706       -22.3326
  25   1.0000      -0.804949       -21.9038
  26   1.0000      -0.795629       -21.6502
  27   1.0000      -0.795624       -21.6500
  28   1.0000      -0.793567       -21.5941
  29   1.0000      -0.789608       -21.4863
  30   1.0000      -0.789599       -21.4861
  31   1.0000      -0.765912       -20.8415
  32   1.0000      -0.765906       -20.8414
  33   1.0000      -0.759527       -20.6678
  34   1.0000      -0.759312       -20.6619
  35   1.0000      -0.742210       -20.1966
  36   1.0000      -0.742206       -20.1964
  37   0.0000      -0.431697       -11.7471
  38   0.0000      -0.410317       -11.1653
  39   0.0000      -0.410317       -11.1653
  40   0.0000      -0.318232        -8.6595
  41   0.0000      -0.263960        -7.1827

MULLIKEN ATOMIC CHARGES AND SPIN POPULATIONS
--------------------------------------------
   0 Au:    0.509055    0.092034
   1 Au:    0.508962    0.092135
   2 Au:    0.508959    0.092135
   3 Au:    0.328775    0.480816
   4 H :    0.144248    0.242881
Sum of atomic charges         :    2.0000000

LOEWDIN ATOMIC CHARGES AND SPIN POPULATIONS
-------------------------------------------
   0 Au:    0.554175    0.194124
   1 Au:    0.554158    0.194131
   2 Au:    0.554157    0.194131
   3 Au:    0.461960    0.270586
   4 H :   -0.124450    0.147029

  Mayer bond orders larger than 0.100000
B(  0-Au,  1-Au) :   0.4110 B(  0-Au,  2-Au) :   0.4110 B(  0-Au,  3-Au) :   0.3873
B(  0-Au,  4-H ) :   0.2866 B(  1-Au,  2-Au) :   0.4110 B(  1-Au,  3-Au) :   0.3873
B(  1-Au,  4-H ) :   0.2867 B(  2-Au,  3-Au) :   0.3873 B(  2-Au,  4-H ) :   0.2867

FINAL SINGLE POINT ENERGY      -542.703834198017

DIPOLE MOMENT
-------------
                                X             Y             Z
Electronic contribution:     -0.00000      -0.00001       2.45086
Nuclear contribution   :      0.00000       0.00000      -2.84605
                        -----------------------------------------
Total Dipole Moment    :     -0.00000      -0.00001      -0.39519
                        -----------------------------------------
Magnitude (a.u.)       :      0.39519
Magnitude (Debye)      :      1.00450

Rotational constants in cm-1:     0.011617     0.011195     0.011195
Rotational constants in MHz :   348.279987   335.605170   335.605004

                             ****ORCA TERMINATED NORMALLY****
TOTAL RUN TIME: 0 days 0 hours 0 minutes 38 seconds 12 msec
