                         Program Version 4.2.0 -  RELEASE  -
|  1> #
|  2> # Au04N0 wB97X-V/Def2-TZVPPD
|  3> #
|  4> ! wb97x-v def2-tzvppd def2/jk grid4 nofinalgrid
|  5>
|  6> *xyz 0 1
|  7> Au      -0.788661   -0.016684    2.209526
|  8> Au      -1.223332   -0.011467   -0.436740
|  9> Au       0.788385    0.016579   -2.209564
| 10> Au       1.223608    0.011572    0.436778
| 11> *
| 12>
| 13> %maxcore 5000
| 14>
| 15> %pal
| 16> nprocs = 24
| 17> end
| 18>
| 19>
| 20>                          ****END OF INPUT****

CARTESIAN COORDINATES (ANGSTROEM)
---------------------------------
  Au    -0.788661   -0.016684    2.209526
  Au    -1.223332   -0.011467   -0.436740
  Au     0.788385    0.016579   -2.209564
  Au     1.223608    0.011572    0.436778

 Total Charge           Charge          ....    0
 Multiplicity           Mult            ....    1
 Number of Electrons    NEL             ....   76
 Basis Dimension        Dim             ....  236

ORBITAL ENERGIES
----------------

  NO   OCC          E(Eh)            E(eV)
   0   2.0000      -4.268383      -116.1486
   1   2.0000      -4.268032      -116.1391
   2   2.0000      -4.242215      -115.4365
   3   2.0000      -4.242206      -115.4363
   4   2.0000      -2.457258       -66.8654
   5   2.0000      -2.450514       -66.6819
   6   2.0000      -2.449500       -66.6543
   7   2.0000      -2.448834       -66.6362
   8   2.0000      -2.446549       -66.5740
   9   2.0000      -2.445958       -66.5579
  10   2.0000      -2.426027       -66.0155
  11   2.0000      -2.425550       -66.0026
  12   2.0000      -2.422781       -65.9272
  13   2.0000      -2.422598       -65.9222
  14   2.0000      -2.418321       -65.8058
  15   2.0000      -2.418293       -65.8051
  16   2.0000      -0.501670       -13.6511
  17   2.0000      -0.501137       -13.6366
  18   2.0000      -0.469942       -12.7878
  19   2.0000      -0.466151       -12.6846
  20   2.0000      -0.464231       -12.6324
  21   2.0000      -0.450884       -12.2692
  22   2.0000      -0.432100       -11.7580
  23   2.0000      -0.431602       -11.7445
  24   2.0000      -0.407265       -11.0822
  25   2.0000      -0.400435       -10.8964
  26   2.0000      -0.400256       -10.8915
  27   2.0000      -0.395156       -10.7528
  28   2.0000      -0.392009       -10.6671
  29   2.0000      -0.390786       -10.6338
  30   2.0000      -0.384783       -10.4705
  31   2.0000      -0.377146       -10.2627
  32   2.0000      -0.376504       -10.2452
  33   2.0000      -0.374026       -10.1778
  34   2.0000      -0.373145       -10.1538
  35   2.0000      -0.372982       -10.1494
  36   2.0000      -0.345635        -9.4052
  37   2.0000      -0.276382        -7.5207
  38   0.0000      -0.065688        -1.7874
  39   0.0000      -0.029606        -0.8056
  40   0.0000       0.011329         0.3083
  41   0.0000       0.039054         1.0627
  42   0.0000       0.046219         1.2577

MULLIKEN ATOMIC CHARGES
-----------------------
   0 Au:   -0.183970
   1 Au:    0.183931
   2 Au:   -0.183950
   3 Au:    0.183989
Sum of atomic charges:    0.0000000

LOEWDIN ATOMIC CHARGES
----------------------
   0 Au:    0.086742
   1 Au:   -0.086839
   2 Au:    0.086764
   3 Au:   -0.086667

  Mayer bond orders larger than 0.100000
B(  0-Au,  1-Au) :   0.5465 B(  0-Au,  2-Au) :   0.1584 B(  0-Au,  3-Au) :   0.5465
B(  1-Au,  2-Au) :   0.5466 B(  1-Au,  3-Au) :   0.4267 B(  2-Au,  3-Au) :   0.5464

FINAL SINGLE POINT ENERGY      -542.865095116770

DIPOLE MOMENT
-------------
                                X             Y             Z
Electronic contribution:      0.00040       0.00000      -0.00000
Nuclear contribution   :     -0.00000      -0.00000       0.00000
                        -----------------------------------------
Total Dipole Moment    :      0.00040       0.00000      -0.00000
                        -----------------------------------------
Magnitude (a.u.)       :      0.00040
Magnitude (Debye)      :      0.00101

Rotational constants in cm-1:     0.025355     0.007775     0.005950
Rotational constants in MHz :   760.119680   233.080651   178.382130

                             ****ORCA TERMINATED NORMALLY****
TOTAL RUN TIME: 0 days 0 hours 0 minutes 27 seconds 489 msec
