                         Program Version 4.2.0 -  RELEASE  -
|  1> #
|  2> # Cu01N0_F wB97X-V/Def2-TZVPPD
|  3> #
|  4> ! wb97x-v def2-tzvppd def2/jk grid4 nofinalgrid
|  5>
|  6> *xyz 0 1
|  7> Cu       0.000000    0.000000    0.412716
|  8> F        0.000000    0.000000   -1.329863
|  9> *
| 10>
| 11> %maxcore 5000
| 12>
| 13> %pal
| 14> nprocs = 24
| 15> end
| 16>
| 17>
| 18>                          ****END OF INPUT****

CARTESIAN COORDINATES (ANGSTROEM)
---------------------------------
  Cu     0.000000    0.000000    0.412716
  F      0.000000    0.000000   -1.329863

 Total Charge           Charge          ....    0
 Multiplicity           Mult            ....    1
 Number of Electrons    NEL             ....   38
 Basis Dimension        Dim             ....  107

ORBITAL ENERGIES
----------------

  NO   OCC          E(Eh)            E(eV)
   0   2.0000    -322.890761     -8786.3043
   1   2.0000     -38.871202     -1057.7392
   2   2.0000     -34.068375      -927.0476
   3   2.0000     -34.068375      -927.0476
   4   2.0000     -34.067407      -927.0213
   5   2.0000     -24.650522      -670.7748
   6   2.0000      -4.426226      -120.4437
   7   2.0000      -2.923330       -79.5478
   8   2.0000      -2.919782       -79.4513
   9   2.0000      -2.919782       -79.4513
  10   2.0000      -1.179271       -32.0896
  11   2.0000      -0.496806       -13.5188
  12   2.0000      -0.464102       -12.6289
  13   2.0000      -0.464102       -12.6289
  14   2.0000      -0.412643       -11.2286
  15   2.0000      -0.412643       -11.2286
  16   2.0000      -0.382957       -10.4208
  17   2.0000      -0.382957       -10.4208
  18   2.0000      -0.370268       -10.0755
  19   0.0000      -0.039745        -1.0815
  20   0.0000       0.047458         1.2914
  21   0.0000       0.047458         1.2914
  22   0.0000       0.078759         2.1431
  23   0.0000       0.120262         3.2725

MULLIKEN ATOMIC CHARGES
-----------------------
   0 Cu:    0.696854
   1 F :   -0.696854
Sum of atomic charges:   -0.0000000

LOEWDIN ATOMIC CHARGES
----------------------
   0 Cu:    0.557748
   1 F :   -0.557748

  Mayer bond orders larger than 0.100000
B(  0-Cu,  1-F ) :   0.6470

FINAL SINGLE POINT ENERGY     -1740.214062140307

DIPOLE MOMENT
-------------
                                X             Y             Z
Electronic contribution:     -0.00000       0.00000       2.94892
Nuclear contribution   :      0.00000       0.00000      -0.83805
                        -----------------------------------------
Total Dipole Moment    :     -0.00000       0.00000       2.11087
                        -----------------------------------------
Magnitude (a.u.)       :      2.11087
Magnitude (Debye)      :      5.36540

Rotational constants in cm-1:     0.000000     0.379573     0.379573
Rotational constants in MHz :     0.000000 11379.305818 11379.305818

                             ****ORCA TERMINATED NORMALLY****
TOTAL RUN TIME: 0 days 0 hours 0 minutes 6 seconds 735 msec
