                         Program Version 4.2.0 -  RELEASE  -
|  1> #
|  2> # Cu01N0_H wB97X-V/Def2-TZVPPD
|  3> #
|  4> ! wb97x-v def2-tzvppd def2/jk grid4 nofinalgrid
|  5>
|  6> *xyz 0 1
|  7> Cu       0.000000    0.000000    0.048513
|  8> H        0.000000    0.000000   -1.406870
|  9> *
| 10>
| 11> %maxcore 5000
| 12>
| 13> %pal
| 14> nprocs = 24
| 15> end
| 16>
| 17>
| 18>                          ****END OF INPUT****

CARTESIAN COORDINATES (ANGSTROEM)
---------------------------------
  Cu     0.000000    0.000000    0.048513
  H      0.000000    0.000000   -1.406870

 Total Charge           Charge          ....    0
 Multiplicity           Mult            ....    1
 Number of Electrons    NEL             ....   30
 Basis Dimension        Dim             ....   84

ORBITAL ENERGIES
----------------

  NO   OCC          E(Eh)            E(eV)
   0   2.0000    -322.870943     -8785.7650
   1   2.0000     -38.854066     -1057.2729
   2   2.0000     -34.052032      -926.6029
   3   2.0000     -34.049991      -926.5474
   4   2.0000     -34.049991      -926.5474
   5   2.0000      -4.403312      -119.8202
   6   2.0000      -2.902494       -78.9809
   7   2.0000      -2.894895       -78.7741
   8   2.0000      -2.894895       -78.7741
   9   2.0000      -0.440406       -11.9841
  10   2.0000      -0.393062       -10.6958
  11   2.0000      -0.393062       -10.6958
  12   2.0000      -0.386405       -10.5146
  13   2.0000      -0.386405       -10.5146
  14   2.0000      -0.332433        -9.0460
  15   0.0000      -0.008786        -0.2391
  16   0.0000       0.045510         1.2384
  17   0.0000       0.045510         1.2384
  18   0.0000       0.110869         3.0169
  19   0.0000       0.123334         3.3561

MULLIKEN ATOMIC CHARGES
-----------------------
   0 Cu:   -0.210834
   1 H :    0.210834
Sum of atomic charges:   -0.0000000

LOEWDIN ATOMIC CHARGES
----------------------
   0 Cu:    0.267864
   1 H :   -0.267864

  Mayer bond orders larger than 0.100000
B(  0-Cu,  1-H ) :   0.9455

FINAL SINGLE POINT ENERGY     -1640.922635089327

DIPOLE MOMENT
-------------
                                X             Y             Z
Electronic contribution:     -0.00000      -0.00000       2.70248
Nuclear contribution   :      0.00000       0.00000      -1.46200
                        -----------------------------------------
Total Dipole Moment    :     -0.00000      -0.00000       1.24048
                        -----------------------------------------
Magnitude (a.u.)       :      1.24048
Magnitude (Debye)      :      3.15305

Rotational constants in cm-1:     0.000000     8.020774     8.020774
Rotational constants in MHz :     0.000000 240456.758928 240456.758928

                             ****ORCA TERMINATED NORMALLY****
TOTAL RUN TIME: 0 days 0 hours 0 minutes 5 seconds 570 msec
