                         Program Version 4.2.0 -  RELEASE  -
|  1> #
|  2> # Cu02N0 wB97X-V/Def2-TZVPPD
|  3> #
|  4> ! wb97x-v def2-tzvppd def2/jk grid4 nofinalgrid
|  5>
|  6> *xyz 0 1
|  7> Cu       0.000000    0.000000    1.107490
|  8> Cu       0.000000    0.000000   -1.107490
|  9> *
| 10>
| 11> %maxcore 5000
| 12>
| 13> %pal
| 14> nprocs = 24
| 15> end
| 16>
| 17>
| 18>                          ****END OF INPUT****

CARTESIAN COORDINATES (ANGSTROEM)
---------------------------------
  Cu     0.000000    0.000000    1.107490
  Cu     0.000000    0.000000   -1.107490

 Total Charge           Charge          ....    0
 Multiplicity           Mult            ....    1
 Number of Electrons    NEL             ....   58
 Basis Dimension        Dim             ....  134

ORBITAL ENERGIES
----------------

  NO   OCC          E(Eh)            E(eV)
   0   2.0000    -322.836456     -8784.8266
   1   2.0000    -322.836445     -8784.8263
   2   2.0000     -38.816887     -1056.2612
   3   2.0000     -38.816840     -1056.2599
   4   2.0000     -34.014187      -925.5731
   5   2.0000     -34.014176      -925.5728
   6   2.0000     -34.013577      -925.5565
   7   2.0000     -34.013577      -925.5565
   8   2.0000     -34.013567      -925.5562
   9   2.0000     -34.013567      -925.5562
  10   2.0000      -4.368249      -118.8661
  11   2.0000      -4.367559      -118.8473
  12   2.0000      -2.867925       -78.0402
  13   2.0000      -2.862098       -77.8817
  14   2.0000      -2.861612       -77.8684
  15   2.0000      -2.861612       -77.8684
  16   2.0000      -2.861141       -77.8556
  17   2.0000      -2.861141       -77.8556
  18   2.0000      -0.391446       -10.6518
  19   2.0000      -0.378368       -10.2959
  20   2.0000      -0.378368       -10.2959
  21   2.0000      -0.359254        -9.7758
  22   2.0000      -0.359249        -9.7757
  23   2.0000      -0.350795        -9.5456
  24   2.0000      -0.350789        -9.5455
  25   2.0000      -0.339168        -9.2292
  26   2.0000      -0.339168        -9.2292
  27   2.0000      -0.335328        -9.1247
  28   2.0000      -0.280211        -7.6249
  29   0.0000      -0.015350        -0.4177
  30   0.0000       0.033495         0.9115
  31   0.0000       0.033495         0.9115
  32   0.0000       0.055690         1.5154
  33   0.0000       0.084450         2.2980

MULLIKEN ATOMIC CHARGES
-----------------------
   0 Cu:   -0.000028
   1 Cu:    0.000028
Sum of atomic charges:    0.0000000

LOEWDIN ATOMIC CHARGES
----------------------
   0 Cu:   -0.000002
   1 Cu:    0.000002

  Mayer bond orders larger than 0.100000
B(  0-Cu,  1-Cu) :   1.0562

FINAL SINGLE POINT ENERGY     -3280.708838658697

DIPOLE MOMENT
-------------
                                X             Y             Z
Electronic contribution:      0.00000      -0.00000      -0.00001
Nuclear contribution   :      0.00000       0.00000       0.00000
                        -----------------------------------------
Total Dipole Moment    :      0.00000      -0.00000      -0.00001
                        -----------------------------------------
Magnitude (a.u.)       :      0.00001
Magnitude (Debye)      :      0.00002

Rotational constants in cm-1:     0.000000     0.108136     0.108136
Rotational constants in MHz :     0.000000  3241.846344  3241.846344

                             ****ORCA TERMINATED NORMALLY****
TOTAL RUN TIME: 0 days 0 hours 0 minutes 8 seconds 420 msec
