                         Program Version 4.2.0 -  RELEASE  -
|  1> #
|  2> # Cu03N0_LIN wB97X-V/Def2-TZVPPD
|  3> #
|  4> ! wb97x-v def2-tzvppd def2/jk grid4 nofinalgrid
|  5>
|  6> *xyz 0 2
|  7> Cu       0.000000    0.000000    0.000000
|  8> Cu       0.000000    0.000000    2.291099
|  9> Cu       0.000000    0.000000   -2.291099
| 10> *
| 11>
| 12> %maxcore 5000
| 13>
| 14> %pal
| 15> nprocs = 24
| 16> end
| 17>
| 18>
| 19>                          ****END OF INPUT****

CARTESIAN COORDINATES (ANGSTROEM)
---------------------------------
  Cu     0.000000    0.000000    0.000000
  Cu     0.000000    0.000000    2.291099
  Cu     0.000000    0.000000   -2.291099

 Total Charge           Charge          ....    0
 Multiplicity           Mult            ....    2
 Number of Electrons    NEL             ....   87
 Basis Dimension        Dim             ....  201

ORBITAL ENERGIES
----------------
                 SPIN UP ORBITALS
  NO   OCC          E(Eh)            E(eV)
   0   1.0000    -322.850306     -8785.2035
   1   1.0000    -322.850302     -8785.2034
   2   1.0000    -322.832474     -8784.7182
   3   1.0000     -38.829171     -1056.5955
   4   1.0000     -38.829148     -1056.5948
   5   1.0000     -38.815142     -1056.2137
   6   1.0000     -34.026722      -925.9142
   7   1.0000     -34.026718      -925.9141
   8   1.0000     -34.025871      -925.8910
   9   1.0000     -34.025870      -925.8910
  10   1.0000     -34.025867      -925.8909
  11   1.0000     -34.025867      -925.8909
  12   1.0000     -34.012788      -925.5350
  13   1.0000     -34.011454      -925.4987
  14   1.0000     -34.011453      -925.4987
  15   1.0000      -4.380893      -119.2101
  16   1.0000      -4.380877      -119.2097
  17   1.0000      -4.364302      -118.7587
  18   1.0000      -2.878273       -78.3218
  19   1.0000      -2.877689       -78.3059
  20   1.0000      -2.874372       -78.2157
  21   1.0000      -2.874372       -78.2156
  22   1.0000      -2.874369       -78.2156
  23   1.0000      -2.874369       -78.2156
  24   1.0000      -2.861682       -77.8703
  25   1.0000      -2.856963       -77.7419
  26   1.0000      -2.856962       -77.7419
  27   1.0000      -0.412170       -11.2157
  28   1.0000      -0.389270       -10.5926
  29   1.0000      -0.389269       -10.5926
  30   1.0000      -0.374427       -10.1887
  31   1.0000      -0.373971       -10.1763
  32   1.0000      -0.373970       -10.1763
  33   1.0000      -0.370501       -10.0819
  34   1.0000      -0.370494       -10.0817
  35   1.0000      -0.369233       -10.0473
  36   1.0000      -0.369226       -10.0472
  37   1.0000      -0.348268        -9.4769
  38   1.0000      -0.348258        -9.4766
  39   1.0000      -0.336708        -9.1623
  40   1.0000      -0.336572        -9.1586
  41   1.0000      -0.336572        -9.1586
  42   1.0000      -0.309015        -8.4087
  43   1.0000      -0.260571        -7.0905
  44   0.0000      -0.003399        -0.0925
  45   0.0000       0.021060         0.5731
  46   0.0000       0.021060         0.5731
  47   0.0000       0.039828         1.0838
  48   0.0000       0.057494         1.5645

                 SPIN DOWN ORBITALS
  NO   OCC          E(Eh)            E(eV)
   0   1.0000    -322.849557     -8785.1831
   1   1.0000    -322.849554     -8785.1830
   2   1.0000    -322.832496     -8784.7188
   3   1.0000     -38.829127     -1056.5943
   4   1.0000     -38.829104     -1056.5936
   5   1.0000     -38.815683     -1056.2284
   6   1.0000     -34.026964      -925.9208
   7   1.0000     -34.026960      -925.9207
   8   1.0000     -34.025866      -925.8909
   9   1.0000     -34.025866      -925.8909
  10   1.0000     -34.025863      -925.8908
  11   1.0000     -34.025863      -925.8908
  12   1.0000     -34.013020      -925.5413
  13   1.0000     -34.011740      -925.5065
  14   1.0000     -34.011740      -925.5065
  15   1.0000      -4.380323      -119.1946
  16   1.0000      -4.380308      -119.1943
  17   1.0000      -4.365324      -118.7865
  18   1.0000      -2.878092       -78.3169
  19   1.0000      -2.877528       -78.3015
  20   1.0000      -2.874451       -78.2178
  21   1.0000      -2.874451       -78.2178
  22   1.0000      -2.874435       -78.2174
  23   1.0000      -2.874435       -78.2174
  24   1.0000      -2.862094       -77.8815
  25   1.0000      -2.858051       -77.7715
  26   1.0000      -2.858051       -77.7715
  27   1.0000      -0.408074       -11.1042
  28   1.0000      -0.387461       -10.5434
  29   1.0000      -0.387461       -10.5433
  30   1.0000      -0.373923       -10.1750
  31   1.0000      -0.372241       -10.1292
  32   1.0000      -0.372241       -10.1292
  33   1.0000      -0.369008       -10.0412
  34   1.0000      -0.369001       -10.0410
  35   1.0000      -0.367610       -10.0032
  36   1.0000      -0.367604       -10.0030
  37   1.0000      -0.349214        -9.5026
  38   1.0000      -0.349204        -9.5023
  39   1.0000      -0.337298        -9.1783
  40   1.0000      -0.337298        -9.1783
  41   1.0000      -0.332542        -9.0489
  42   1.0000      -0.278543        -7.5795
  43   0.0000      -0.066013        -1.7963
  44   0.0000       0.014087         0.3833
  45   0.0000       0.026283         0.7152
  46   0.0000       0.026283         0.7152
  47   0.0000       0.052750         1.4354

MULLIKEN ATOMIC CHARGES AND SPIN POPULATIONS
--------------------------------------------
   0 Cu:   -0.298035   -0.346997
   1 Cu:    0.149018    0.673499
   2 Cu:    0.149017    0.673498
Sum of atomic charges         :   -0.0000000

LOEWDIN ATOMIC CHARGES AND SPIN POPULATIONS
-------------------------------------------
   0 Cu:   -0.253742    0.390128
   1 Cu:    0.126871    0.304936
   2 Cu:    0.126871    0.304936

  Mayer bond orders larger than 0.100000
B(  0-Cu,  1-Cu) :   0.4447 B(  0-Cu,  2-Cu) :   0.4447

FINAL SINGLE POINT ENERGY     -4921.057285189400

DIPOLE MOMENT
-------------
                                X             Y             Z
Electronic contribution:     -0.00000      -0.00000      -0.00000
Nuclear contribution   :      0.00000       0.00000       0.00000
                        -----------------------------------------
Total Dipole Moment    :     -0.00000      -0.00000      -0.00000
                        -----------------------------------------
Magnitude (a.u.)       :      0.00000
Magnitude (Debye)      :      0.00000

Rotational constants in cm-1:     0.000000     0.025268     0.025268
Rotational constants in MHz :     0.000000   757.502973   757.502973

                             ****ORCA TERMINATED NORMALLY****
TOTAL RUN TIME: 0 days 0 hours 0 minutes 18 seconds 229 msec
