                         Program Version 4.2.0 -  RELEASE  -
|  1> #
|  2> # Cu03C1_D3H wB97X-V/Def2-TZVPPD
|  3> #
|  4> ! wb97x-v def2-tzvppd def2/jk grid4 nofinalgrid
|  5>
|  6> *xyz 1 1
|  7> Cu       0.000000    1.349261   -0.000000
|  8> Cu       1.168494   -0.674630    0.000000
|  9> Cu      -1.168494   -0.674630   -0.000000
| 10> *
| 11>
| 12> %maxcore 5000
| 13>
| 14> %pal
| 15> nprocs = 24
| 16> end
| 17>
| 18>
| 19>                          ****END OF INPUT****

CARTESIAN COORDINATES (ANGSTROEM)
---------------------------------
  Cu     0.000000    1.349261   -0.000000
  Cu     1.168494   -0.674630    0.000000
  Cu    -1.168494   -0.674630   -0.000000

 Total Charge           Charge          ....    1
 Multiplicity           Mult            ....    1
 Number of Electrons    NEL             ....   86
 Basis Dimension        Dim             ....  201

ORBITAL ENERGIES
----------------

  NO   OCC          E(Eh)            E(eV)
   0   2.0000    -323.057601     -8790.8442
   1   2.0000    -323.057377     -8790.8381
   2   2.0000    -323.057371     -8790.8380
   3   2.0000     -39.036796     -1062.2452
   4   2.0000     -39.036602     -1062.2400
   5   2.0000     -39.036565     -1062.2389
   6   2.0000     -34.234561      -931.5698
   7   2.0000     -34.234353      -931.5641
   8   2.0000     -34.234342      -931.5638
   9   2.0000     -34.234011      -931.5548
  10   2.0000     -34.233803      -931.5491
  11   2.0000     -34.233794      -931.5489
  12   2.0000     -34.232970      -931.5265
  13   2.0000     -34.232762      -931.5208
  14   2.0000     -34.232756      -931.5206
  15   2.0000      -4.588945      -124.8715
  16   2.0000      -4.588448      -124.8580
  17   2.0000      -4.588370      -124.8559
  18   2.0000      -3.087572       -84.0171
  19   2.0000      -3.085694       -83.9660
  20   2.0000      -3.085655       -83.9650
  21   2.0000      -3.083415       -83.9040
  22   2.0000      -3.082931       -83.8908
  23   2.0000      -3.082889       -83.8897
  24   2.0000      -3.081269       -83.8456
  25   2.0000      -3.080911       -83.8358
  26   2.0000      -3.080838       -83.8339
  27   2.0000      -0.625064       -17.0089
  28   2.0000      -0.604551       -16.4507
  29   2.0000      -0.604510       -16.4495
  30   2.0000      -0.603588       -16.4245
  31   2.0000      -0.590589       -16.0707
  32   2.0000      -0.586313       -15.9544
  33   2.0000      -0.586247       -15.9526
  34   2.0000      -0.567272       -15.4362
  35   2.0000      -0.567214       -15.4347
  36   2.0000      -0.564114       -15.3503
  37   2.0000      -0.562057       -15.2944
  38   2.0000      -0.561955       -15.2916
  39   2.0000      -0.560602       -15.2547
  40   2.0000      -0.560591       -15.2545
  41   2.0000      -0.543595       -14.7920
  42   2.0000      -0.522068       -14.2062
  43   0.0000      -0.196268        -5.3407
  44   0.0000      -0.196261        -5.3405
  45   0.0000      -0.144738        -3.9385
  46   0.0000      -0.107978        -2.9382
  47   0.0000      -0.085568        -2.3284

MULLIKEN ATOMIC CHARGES
-----------------------
   0 Cu:    0.333204
   1 Cu:    0.333417
   2 Cu:    0.333378
Sum of atomic charges:    1.0000000

LOEWDIN ATOMIC CHARGES
----------------------
   0 Cu:    0.333293
   1 Cu:    0.333354
   2 Cu:    0.333353

  Mayer bond orders larger than 0.100000
B(  0-Cu,  1-Cu) :   0.5282 B(  0-Cu,  2-Cu) :   0.5282 B(  1-Cu,  2-Cu) :   0.5281

FINAL SINGLE POINT ENERGY     -4920.869828653811

DIPOLE MOMENT
-------------
                                X             Y             Z
Electronic contribution:      0.00000      -0.00018       0.00000
Nuclear contribution   :      0.00000       0.00000       0.00000
                        -----------------------------------------
Total Dipole Moment    :      0.00000      -0.00018       0.00000
                        -----------------------------------------
Magnitude (a.u.)       :      0.00018
Magnitude (Debye)      :      0.00045

Rotational constants in cm-1:     0.097140     0.097140     0.048570
Rotational constants in MHz :  2912.185801  2912.185732  1456.092883

                             ****ORCA TERMINATED NORMALLY****
TOTAL RUN TIME: 0 days 0 hours 0 minutes 15 seconds 361 msec
