                         Program Version 4.2.0 -  RELEASE  -
|  1> #
|  2> # Cu03C1_LIN wB97X-V/Def2-TZVPPD
|  3> #
|  4> ! wb97x-v def2-tzvppd def2/jk grid4 nofinalgrid
|  5>
|  6> *xyz 1 1
|  7> Cu       0.000000    0.000000    0.000000
|  8> Cu       0.000000    0.000000    2.337165
|  9> Cu       0.000000    0.000000   -2.337165
| 10> *
| 11>
| 12> %maxcore 5000
| 13>
| 14> %pal
| 15> nprocs = 24
| 16> end
| 17>
| 18>
| 19>                          ****END OF INPUT****

CARTESIAN COORDINATES (ANGSTROEM)
---------------------------------
  Cu     0.000000    0.000000    0.000000
  Cu     0.000000    0.000000    2.337165
  Cu     0.000000    0.000000   -2.337165

 Total Charge           Charge          ....    1
 Multiplicity           Mult            ....    1
 Number of Electrons    NEL             ....   86
 Basis Dimension        Dim             ....  201

ORBITAL ENERGIES
----------------

  NO   OCC          E(Eh)            E(eV)
   0   2.0000    -323.063838     -8791.0140
   1   2.0000    -323.063835     -8791.0139
   2   2.0000    -323.016304     -8789.7205
   3   2.0000     -39.037706     -1062.2700
   4   2.0000     -39.037686     -1062.2694
   5   2.0000     -38.998338     -1061.1987
   6   2.0000     -34.235839      -931.6045
   7   2.0000     -34.235836      -931.6045
   8   2.0000     -34.235142      -931.5856
   9   2.0000     -34.235142      -931.5856
  10   2.0000     -34.235139      -931.5855
  11   2.0000     -34.235139      -931.5855
  12   2.0000     -34.196391      -930.5311
  13   2.0000     -34.194352      -930.4756
  14   2.0000     -34.194351      -930.4756
  15   2.0000      -4.593026      -124.9826
  16   2.0000      -4.593005      -124.9820
  17   2.0000      -4.548000      -123.7574
  18   2.0000      -3.090459       -84.0957
  19   2.0000      -3.090325       -84.0920
  20   2.0000      -3.088138       -84.0325
  21   2.0000      -3.088138       -84.0325
  22   2.0000      -3.088122       -84.0321
  23   2.0000      -3.088122       -84.0321
  24   2.0000      -3.047301       -82.9213
  25   2.0000      -3.039852       -82.7186
  26   2.0000      -3.039852       -82.7186
  27   2.0000      -0.611515       -16.6402
  28   2.0000      -0.593341       -16.1456
  29   2.0000      -0.593341       -16.1456
  30   2.0000      -0.587693       -15.9919
  31   2.0000      -0.586230       -15.9521
  32   2.0000      -0.586230       -15.9521
  33   2.0000      -0.583079       -15.8664
  34   2.0000      -0.583071       -15.8662
  35   2.0000      -0.582680       -15.8555
  36   2.0000      -0.582672       -15.8553
  37   2.0000      -0.531663       -14.4673
  38   2.0000      -0.531651       -14.4670
  39   2.0000      -0.530595       -14.4382
  40   2.0000      -0.530594       -14.4382
  41   2.0000      -0.529671       -14.4131
  42   2.0000      -0.466639       -12.6979
  43   0.0000      -0.257265        -7.0005
  44   0.0000      -0.150220        -4.0877
  45   0.0000      -0.128689        -3.5018
  46   0.0000      -0.128689        -3.5018
  47   0.0000      -0.089833        -2.4445

MULLIKEN ATOMIC CHARGES
-----------------------
   0 Cu:   -0.354656
   1 Cu:    0.677336
   2 Cu:    0.677320
Sum of atomic charges:    1.0000000

LOEWDIN ATOMIC CHARGES
----------------------
   0 Cu:    0.144955
   1 Cu:    0.427523
   2 Cu:    0.427522

  Mayer bond orders larger than 0.100000
B(  0-Cu,  1-Cu) :   0.4694 B(  0-Cu,  2-Cu) :   0.4694 B(  1-Cu,  2-Cu) :   0.1403

FINAL SINGLE POINT ENERGY     -4920.801321761686

DIPOLE MOMENT
-------------
                                X             Y             Z
Electronic contribution:     -0.00000      -0.00000       0.00000
Nuclear contribution   :      0.00000       0.00000       0.00000
                        -----------------------------------------
Total Dipole Moment    :     -0.00000      -0.00000       0.00000
                        -----------------------------------------
Magnitude (a.u.)       :      0.00000
Magnitude (Debye)      :      0.00000

Rotational constants in cm-1:     0.000000     0.024281     0.024281
Rotational constants in MHz :     0.000000   727.936180   727.936180

                             ****ORCA TERMINATED NORMALLY****
TOTAL RUN TIME: 0 days 0 hours 0 minutes 16 seconds 348 msec
