                         Program Version 4.2.0 -  RELEASE  -
|  1> #
|  2> # Cu03N0_D3H wB97X-V/Def2-TZVPPD
|  3> #
|  4> ! wb97x-v def2-tzvppd def2/jk grid4 nofinalgrid
|  5>
|  6> *xyz 0 2
|  7> Cu       0.000000    1.346828   -0.000000
|  8> Cu       1.166387   -0.673414   -0.000000
|  9> Cu      -1.166387   -0.673414   -0.000000
| 10> *
| 11>
| 12> %maxcore 5000
| 13>
| 14> %pal
| 15> nprocs = 24
| 16> end
| 17>
| 18>
| 19>                          ****END OF INPUT****

CARTESIAN COORDINATES (ANGSTROEM)
---------------------------------
  Cu     0.000000    1.346828   -0.000000
  Cu     1.166387   -0.673414   -0.000000
  Cu    -1.166387   -0.673414   -0.000000

 Total Charge           Charge          ....    0
 Multiplicity           Mult            ....    2
 Number of Electrons    NEL             ....   87
 Basis Dimension        Dim             ....  201

ORBITAL ENERGIES
----------------
                 SPIN UP ORBITALS
  NO   OCC          E(Eh)            E(eV)
   0   1.0000    -322.859408     -8785.4511
   1   1.0000    -322.859402     -8785.4510
   2   1.0000    -322.844427     -8785.0435
   3   1.0000     -38.840293     -1056.8981
   4   1.0000     -38.840258     -1056.8972
   5   1.0000     -38.827980     -1056.5631
   6   1.0000     -34.037629      -926.2110
   7   1.0000     -34.037622      -926.2108
   8   1.0000     -34.037147      -926.1978
   9   1.0000     -34.037134      -926.1975
  10   1.0000     -34.036664      -926.1847
  11   1.0000     -34.036657      -926.1845
  12   1.0000     -34.025335      -925.8764
  13   1.0000     -34.024968      -925.8665
  14   1.0000     -34.023011      -925.8132
  15   1.0000      -4.391506      -119.4989
  16   1.0000      -4.391143      -119.4891
  17   1.0000      -4.377051      -119.1056
  18   1.0000      -2.889800       -78.6354
  19   1.0000      -2.886643       -78.5495
  20   1.0000      -2.885827       -78.5273
  21   1.0000      -2.885025       -78.5055
  22   1.0000      -2.884477       -78.4906
  23   1.0000      -2.884218       -78.4836
  24   1.0000      -2.872607       -78.1676
  25   1.0000      -2.872004       -78.1512
  26   1.0000      -2.868011       -78.0425
  27   1.0000      -0.427031       -11.6201
  28   1.0000      -0.406062       -11.0495
  29   1.0000      -0.403414       -10.9774
  30   1.0000      -0.399894       -10.8817
  31   1.0000      -0.390256       -10.6194
  32   1.0000      -0.387388       -10.5414
  33   1.0000      -0.382375       -10.4049
  34   1.0000      -0.368811       -10.0359
  35   1.0000      -0.365003        -9.9322
  36   1.0000      -0.364380        -9.9153
  37   1.0000      -0.357967        -9.7408
  38   1.0000      -0.355923        -9.6852
  39   1.0000      -0.355834        -9.6827
  40   1.0000      -0.352506        -9.5922
  41   1.0000      -0.341051        -9.2805
  42   1.0000      -0.338644        -9.2150
  43   1.0000      -0.198587        -5.4038
  44   0.0000      -0.034366        -0.9351
  45   0.0000       0.014212         0.3867
  46   0.0000       0.029504         0.8028
  47   0.0000       0.053742         1.4624
  48   0.0000       0.054408         1.4805

                 SPIN DOWN ORBITALS
  NO   OCC          E(Eh)            E(eV)
   0   1.0000    -322.859220     -8785.4460
   1   1.0000    -322.859214     -8785.4459
   2   1.0000    -322.843849     -8785.0277
   3   1.0000     -38.840158     -1056.8944
   4   1.0000     -38.840123     -1056.8935
   5   1.0000     -38.827307     -1056.5447
   6   1.0000     -34.037399      -926.2047
   7   1.0000     -34.037388      -926.2044
   8   1.0000     -34.036946      -926.1924
   9   1.0000     -34.036936      -926.1921
  10   1.0000     -34.036662      -926.1847
  11   1.0000     -34.036656      -926.1845
  12   1.0000     -34.024626      -925.8572
  13   1.0000     -34.024483      -925.8532
  14   1.0000     -34.022839      -925.8085
  15   1.0000      -4.391121      -119.4885
  16   1.0000      -4.390760      -119.4787
  17   1.0000      -4.375380      -119.0602
  18   1.0000      -2.889462       -78.6263
  19   1.0000      -2.886614       -78.5488
  20   1.0000      -2.885239       -78.5113
  21   1.0000      -2.884299       -78.4858
  22   1.0000      -2.884211       -78.4834
  23   1.0000      -2.884049       -78.4790
  24   1.0000      -2.871563       -78.1392
  25   1.0000      -2.870241       -78.1032
  26   1.0000      -2.866806       -78.0097
  27   1.0000      -0.424520       -11.5518
  28   1.0000      -0.404442       -11.0054
  29   1.0000      -0.403328       -10.9751
  30   1.0000      -0.397137       -10.8066
  31   1.0000      -0.387648       -10.5484
  32   1.0000      -0.386318       -10.5122
  33   1.0000      -0.381619       -10.3844
  34   1.0000      -0.367900       -10.0111
  35   1.0000      -0.364773        -9.9260
  36   1.0000      -0.364527        -9.9193
  37   1.0000      -0.356109        -9.6902
  38   1.0000      -0.354242        -9.6394
  39   1.0000      -0.351383        -9.5616
  40   1.0000      -0.350476        -9.5369
  41   1.0000      -0.336937        -9.1685
  42   1.0000      -0.325882        -8.8677
  43   0.0000      -0.028370        -0.7720
  44   0.0000      -0.009866        -0.2685
  45   0.0000       0.018568         0.5053
  46   0.0000       0.043580         1.1859
  47   0.0000       0.068946         1.8761

MULLIKEN ATOMIC CHARGES AND SPIN POPULATIONS
--------------------------------------------
   0 Cu:   -0.126228    0.597865
   1 Cu:    0.063119    0.201050
   2 Cu:    0.063109    0.201085
Sum of atomic charges         :   -0.0000000

LOEWDIN ATOMIC CHARGES AND SPIN POPULATIONS
-------------------------------------------
   0 Cu:   -0.022781    0.392974
   1 Cu:    0.011391    0.303511
   2 Cu:    0.011389    0.303516

  Mayer bond orders larger than 0.100000
B(  0-Cu,  1-Cu) :   0.4191 B(  0-Cu,  2-Cu) :   0.4191 B(  1-Cu,  2-Cu) :   0.7882

FINAL SINGLE POINT ENERGY     -4921.064804510475

DIPOLE MOMENT
-------------
                                X             Y             Z
Electronic contribution:      0.00001      -0.32713      -0.00000
Nuclear contribution   :      0.00000       0.00000      -0.00000
                        -----------------------------------------
Total Dipole Moment    :      0.00001      -0.32713      -0.00000
                        -----------------------------------------
Magnitude (a.u.)       :      0.32713
Magnitude (Debye)      :      0.83151

Rotational constants in cm-1:     0.097491     0.097491     0.048746
Rotational constants in MHz :  2922.716641  2922.715325  1461.357991

                             ****ORCA TERMINATED NORMALLY****
TOTAL RUN TIME: 0 days 0 hours 0 minutes 19 seconds 648 msec
