                         Program Version 4.2.0 -  RELEASE  -
|  1> #
|  2> # Cu04C2_H_F wB97X-V/Def2-TZVPPD
|  3> #
|  4> ! wb97x-v def2-tzvppd def2/jk grid4 nofinalgrid
|  5>
|  6> *xyz 2 2
|  7> Cu      -0.000000    1.387730   -0.507533
|  8> Cu       1.201809   -0.693865   -0.507533
|  9> Cu      -1.201809   -0.693865   -0.507533
| 10> Cu       0.000000    0.000000    1.576640
| 11> H        0.000000    0.000000   -1.567185
| 12> *
| 13>
| 14> %maxcore 5000
| 15>
| 16> %pal
| 17> nprocs = 24
| 18> end
| 19>
| 20>
| 21>                          ****END OF INPUT****

CARTESIAN COORDINATES (ANGSTROEM)
---------------------------------
  Cu    -0.000000    1.387730   -0.507533
  Cu     1.201809   -0.693865   -0.507533
  Cu    -1.201809   -0.693865   -0.507533
  Cu     0.000000    0.000000    1.576640
  H      0.000000    0.000000   -1.567185

 Total Charge           Charge          ....    2
 Multiplicity           Mult            ....    2
 Number of Electrons    NEL             ....  115
 Basis Dimension        Dim             ....  285

ORBITAL ENERGIES
----------------
                 SPIN UP ORBITALS
  NO   OCC          E(Eh)            E(eV)
   0   1.0000    -323.284966     -8797.0311
   1   1.0000    -323.284959     -8797.0310
   2   1.0000    -323.284953     -8797.0308
   3   1.0000    -323.256763     -8796.2637
   4   1.0000     -39.265348     -1068.4645
   5   1.0000     -39.265342     -1068.4643
   6   1.0000     -39.265305     -1068.4633
   7   1.0000     -39.235188     -1067.6438
   8   1.0000     -34.463049      -937.7872
   9   1.0000     -34.463042      -937.7871
  10   1.0000     -34.463031      -937.7867
  11   1.0000     -34.462134      -937.7623
  12   1.0000     -34.462125      -937.7621
  13   1.0000     -34.462118      -937.7619
  14   1.0000     -34.461479      -937.7445
  15   1.0000     -34.461464      -937.7441
  16   1.0000     -34.461459      -937.7440
  17   1.0000     -34.432701      -936.9614
  18   1.0000     -34.432060      -936.9440
  19   1.0000     -34.432058      -936.9439
  20   1.0000      -4.818348      -131.1139
  21   1.0000      -4.817965      -131.1035
  22   1.0000      -4.817956      -131.1032
  23   1.0000      -4.786725      -130.2534
  24   1.0000      -3.317799       -90.2819
  25   1.0000      -3.315160       -90.2101
  26   1.0000      -3.315150       -90.2098
  27   1.0000      -3.312778       -90.1453
  28   1.0000      -3.312418       -90.1355
  29   1.0000      -3.312407       -90.1352
  30   1.0000      -3.310925       -90.0948
  31   1.0000      -3.310925       -90.0948
  32   1.0000      -3.310031       -90.0705
  33   1.0000      -3.282500       -89.3214
  34   1.0000      -3.280655       -89.2712
  35   1.0000      -3.280655       -89.2711
  36   1.0000      -0.946923       -25.7671
  37   1.0000      -0.860419       -23.4132
  38   1.0000      -0.830672       -22.6037
  39   1.0000      -0.830666       -22.6036
  40   1.0000      -0.820741       -22.3335
  41   1.0000      -0.820735       -22.3333
  42   1.0000      -0.820338       -22.3225
  43   1.0000      -0.806107       -21.9353
  44   1.0000      -0.805290       -21.9131
  45   1.0000      -0.805280       -21.9128
  46   1.0000      -0.796662       -21.6783
  47   1.0000      -0.796659       -21.6782
  48   1.0000      -0.792030       -21.5522
  49   1.0000      -0.791309       -21.5326
  50   1.0000      -0.791288       -21.5320
  51   1.0000      -0.771663       -20.9980
  52   1.0000      -0.770869       -20.9764
  53   1.0000      -0.770861       -20.9762
  54   1.0000      -0.766339       -20.8531
  55   1.0000      -0.760284       -20.6884
  56   1.0000      -0.760261       -20.6878
  57   1.0000      -0.662853       -18.0371
  58   0.0000      -0.391313       -10.6482
  59   0.0000      -0.391311       -10.6481
  60   0.0000      -0.308072        -8.3831
  61   0.0000      -0.285647        -7.7729
  62   0.0000      -0.259784        -7.0691

                 SPIN DOWN ORBITALS
  NO   OCC          E(Eh)            E(eV)
   0   1.0000    -323.284823     -8797.0273
   1   1.0000    -323.284816     -8797.0271
   2   1.0000    -323.284810     -8797.0269
   3   1.0000    -323.256135     -8796.2466
   4   1.0000     -39.263295     -1068.4086
   5   1.0000     -39.263290     -1068.4084
   6   1.0000     -39.263253     -1068.4074
   7   1.0000     -39.235481     -1067.6517
   8   1.0000     -34.460908      -937.7290
   9   1.0000     -34.460893      -937.7286
  10   1.0000     -34.460888      -937.7284
  11   1.0000     -34.460525      -937.7186
  12   1.0000     -34.460520      -937.7184
  13   1.0000     -34.460504      -937.7180
  14   1.0000     -34.460031      -937.7051
  15   1.0000     -34.460026      -937.7050
  16   1.0000     -34.460013      -937.7046
  17   1.0000     -34.432981      -936.9691
  18   1.0000     -34.432372      -936.9525
  19   1.0000     -34.432371      -936.9524
  20   1.0000      -4.814340      -131.0048
  21   1.0000      -4.813957      -130.9944
  22   1.0000      -4.813951      -130.9943
  23   1.0000      -4.786863      -130.2572
  24   1.0000      -3.312036       -90.1251
  25   1.0000      -3.310449       -90.0819
  26   1.0000      -3.310448       -90.0819
  27   1.0000      -3.308592       -90.0314
  28   1.0000      -3.308543       -90.0300
  29   1.0000      -3.308537       -90.0299
  30   1.0000      -3.306804       -89.9827
  31   1.0000      -3.306612       -89.9775
  32   1.0000      -3.306603       -89.9772
  33   1.0000      -3.283673       -89.3533
  34   1.0000      -3.280986       -89.2802
  35   1.0000      -3.280984       -89.2801
  36   1.0000      -0.922497       -25.1024
  37   1.0000      -0.851360       -23.1667
  38   1.0000      -0.828861       -22.5544
  39   1.0000      -0.828854       -22.5543
  40   1.0000      -0.815659       -22.1952
  41   1.0000      -0.815646       -22.1949
  42   1.0000      -0.814125       -22.1535
  43   1.0000      -0.803101       -21.8535
  44   1.0000      -0.803090       -21.8532
  45   1.0000      -0.796111       -21.6633
  46   1.0000      -0.789951       -21.4957
  47   1.0000      -0.789770       -21.4907
  48   1.0000      -0.789748       -21.4901
  49   1.0000      -0.778888       -21.1946
  50   1.0000      -0.778885       -21.1945
  51   1.0000      -0.769978       -20.9522
  52   1.0000      -0.769969       -20.9519
  53   1.0000      -0.769375       -20.9358
  54   1.0000      -0.763200       -20.7677
  55   1.0000      -0.756316       -20.5804
  56   1.0000      -0.756298       -20.5799
  57   0.0000      -0.433881       -11.8065
  58   0.0000      -0.384646       -10.4667
  59   0.0000      -0.384643       -10.4667
  60   0.0000      -0.296178        -8.0594
  61   0.0000      -0.274982        -7.4826

MULLIKEN ATOMIC CHARGES AND SPIN POPULATIONS
--------------------------------------------
   0 Cu:    0.454750    0.069069
   1 Cu:    0.454545    0.069231
   2 Cu:    0.454554    0.069234
   3 Cu:    0.366023    0.537894
   4 H :    0.270129    0.254571
Sum of atomic charges         :    2.0000000

LOEWDIN ATOMIC CHARGES AND SPIN POPULATIONS
-------------------------------------------
   0 Cu:    0.483725    0.230526
   1 Cu:    0.483667    0.230518
   2 Cu:    0.483667    0.230518
   3 Cu:    0.545441    0.171272
   4 H :    0.003500    0.137166

  Mayer bond orders larger than 0.100000
B(  0-Cu,  1-Cu) :   0.4092 B(  0-Cu,  2-Cu) :   0.4092 B(  0-Cu,  3-Cu) :   0.2756
B(  0-Cu,  4-H ) :   0.1857 B(  1-Cu,  2-Cu) :   0.4092 B(  1-Cu,  3-Cu) :   0.2757
B(  1-Cu,  4-H ) :   0.1857 B(  2-Cu,  3-Cu) :   0.2757 B(  2-Cu,  4-H ) :   0.1857

FINAL SINGLE POINT ENERGY     -6561.399518810464

DIPOLE MOMENT
-------------
                                X             Y             Z
Electronic contribution:      0.00000       0.00019       1.64745
Nuclear contribution   :      0.00000       0.00000      -1.60670
                        -----------------------------------------
Total Dipole Moment    :      0.00000       0.00019       0.04075
                        -----------------------------------------
Magnitude (a.u.)       :      0.04075
Magnitude (Debye)      :      0.10357

Rotational constants in cm-1:     0.045915     0.042882     0.042882
Rotational constants in MHz :  1376.483459  1285.559854  1285.559421

                             ****ORCA TERMINATED NORMALLY****
TOTAL RUN TIME: 0 days 0 hours 0 minutes 50 seconds 322 msec
