                         Program Version 4.2.0 -  RELEASE  -
|  1> #
|  2> # Cu04C2_H_A wB97X-V/Def2-TZVPPD
|  3> #
|  4> ! wb97x-v def2-tzvppd def2/jk grid4 nofinalgrid
|  5>
|  6> *xyz 2 2
|  7> Cu      -0.000000    1.401870   -0.545062
|  8> Cu       1.214055   -0.700935   -0.545062
|  9> Cu      -1.214055   -0.700935   -0.545062
| 10> Cu       0.000000    0.000000    1.530006
| 11> H        0.000000    0.000000    3.050192
| 12> *
| 13>
| 14> %maxcore 5000
| 15>
| 16> %pal
| 17> nprocs = 24
| 18> end
| 19>
| 20>
| 21>                          ****END OF INPUT****

CARTESIAN COORDINATES (ANGSTROEM)
---------------------------------
  Cu    -0.000000    1.401870   -0.545062
  Cu     1.214055   -0.700935   -0.545062
  Cu    -1.214055   -0.700935   -0.545062
  Cu     0.000000    0.000000    1.530006
  H      0.000000    0.000000    3.050192

 Total Charge           Charge          ....    2
 Multiplicity           Mult            ....    2
 Number of Electrons    NEL             ....  115
 Basis Dimension        Dim             ....  285

ORBITAL ENERGIES
----------------
                 SPIN UP ORBITALS
  NO   OCC          E(Eh)            E(eV)
   0   1.0000    -323.305493     -8797.5897
   1   1.0000    -323.268291     -8796.5774
   2   1.0000    -323.268284     -8796.5772
   3   1.0000    -323.268279     -8796.5771
   4   1.0000     -39.295191     -1069.2765
   5   1.0000     -39.246707     -1067.9572
   6   1.0000     -39.246701     -1067.9570
   7   1.0000     -39.246669     -1067.9561
   8   1.0000     -34.498831      -938.7609
   9   1.0000     -34.486856      -938.4351
  10   1.0000     -34.486853      -938.4350
  11   1.0000     -34.444024      -937.2696
  12   1.0000     -34.444019      -937.2694
  13   1.0000     -34.444010      -937.2692
  14   1.0000     -34.443775      -937.2628
  15   1.0000     -34.443769      -937.2626
  16   1.0000     -34.443756      -937.2623
  17   1.0000     -34.443726      -937.2614
  18   1.0000     -34.443709      -937.2610
  19   1.0000     -34.443704      -937.2608
  20   1.0000      -4.844535      -131.8265
  21   1.0000      -4.798877      -130.5841
  22   1.0000      -4.798553      -130.5753
  23   1.0000      -4.798548      -130.5751
  24   1.0000      -3.354275       -91.2745
  25   1.0000      -3.330110       -90.6169
  26   1.0000      -3.330101       -90.6167
  27   1.0000      -3.296423       -89.7002
  28   1.0000      -3.294528       -89.6487
  29   1.0000      -3.294526       -89.6486
  30   1.0000      -3.293240       -89.6136
  31   1.0000      -3.293192       -89.6123
  32   1.0000      -3.293184       -89.6121
  33   1.0000      -3.292393       -89.5906
  34   1.0000      -3.292391       -89.5905
  35   1.0000      -3.292222       -89.5859
  36   1.0000      -0.898542       -24.4506
  37   1.0000      -0.840369       -22.8676
  38   1.0000      -0.840339       -22.8668
  39   1.0000      -0.828841       -22.5539
  40   1.0000      -0.822256       -22.3747
  41   1.0000      -0.822255       -22.3747
  42   1.0000      -0.814818       -22.1723
  43   1.0000      -0.806341       -21.9416
  44   1.0000      -0.806338       -21.9416
  45   1.0000      -0.798959       -21.7408
  46   1.0000      -0.789539       -21.4844
  47   1.0000      -0.789529       -21.4842
  48   1.0000      -0.777654       -21.1610
  49   1.0000      -0.775946       -21.1146
  50   1.0000      -0.775664       -21.1069
  51   1.0000      -0.775661       -21.1068
  52   1.0000      -0.773746       -21.0547
  53   1.0000      -0.773723       -21.0541
  54   1.0000      -0.766737       -20.8640
  55   1.0000      -0.766732       -20.8638
  56   1.0000      -0.754403       -20.5284
  57   1.0000      -0.738736       -20.1020
  58   0.0000      -0.385633       -10.4936
  59   0.0000      -0.385631       -10.4935
  60   0.0000      -0.356244        -9.6939
  61   0.0000      -0.270772        -7.3681
  62   0.0000      -0.255990        -6.9658

                 SPIN DOWN ORBITALS
  NO   OCC          E(Eh)            E(eV)
   0   1.0000    -323.304824     -8797.5715
   1   1.0000    -323.268259     -8796.5765
   2   1.0000    -323.268252     -8796.5763
   3   1.0000    -323.268247     -8796.5762
   4   1.0000     -39.288948     -1069.1066
   5   1.0000     -39.246598     -1067.9542
   6   1.0000     -39.246592     -1067.9541
   7   1.0000     -39.246560     -1067.9532
   8   1.0000     -34.491019      -938.5483
   9   1.0000     -34.483096      -938.3327
  10   1.0000     -34.483095      -938.3327
  11   1.0000     -34.443916      -937.2666
  12   1.0000     -34.443910      -937.2664
  13   1.0000     -34.443900      -937.2662
  14   1.0000     -34.443716      -937.2612
  15   1.0000     -34.443700      -937.2607
  16   1.0000     -34.443694      -937.2606
  17   1.0000     -34.443626      -937.2587
  18   1.0000     -34.443620      -937.2585
  19   1.0000     -34.443608      -937.2582
  20   1.0000      -4.831701      -131.4773
  21   1.0000      -4.798647      -130.5778
  22   1.0000      -4.798323      -130.5690
  23   1.0000      -4.798318      -130.5689
  24   1.0000      -3.327333       -90.5413
  25   1.0000      -3.323365       -90.4333
  26   1.0000      -3.323360       -90.4332
  27   1.0000      -3.295940       -89.6871
  28   1.0000      -3.294245       -89.6410
  29   1.0000      -3.294243       -89.6409
  30   1.0000      -3.293080       -89.6093
  31   1.0000      -3.293072       -89.6090
  32   1.0000      -3.292994       -89.6069
  33   1.0000      -3.292223       -89.5859
  34   1.0000      -3.292104       -89.5827
  35   1.0000      -3.292100       -89.5826
  36   1.0000      -0.859512       -23.3885
  37   1.0000      -0.834748       -22.7147
  38   1.0000      -0.834721       -22.7139
  39   1.0000      -0.820618       -22.3301
  40   1.0000      -0.816868       -22.2281
  41   1.0000      -0.816866       -22.2281
  42   1.0000      -0.805150       -21.9092
  43   1.0000      -0.805148       -21.9092
  44   1.0000      -0.797152       -21.6916
  45   1.0000      -0.796146       -21.6642
  46   1.0000      -0.788138       -21.4463
  47   1.0000      -0.788130       -21.4461
  48   1.0000      -0.775882       -21.1128
  49   1.0000      -0.775306       -21.0971
  50   1.0000      -0.775303       -21.0971
  51   1.0000      -0.773278       -21.0420
  52   1.0000      -0.773257       -21.0414
  53   1.0000      -0.764715       -20.8089
  54   1.0000      -0.764704       -20.8087
  55   1.0000      -0.754450       -20.5296
  56   1.0000      -0.751186       -20.4408
  57   0.0000      -0.443861       -12.0781
  58   0.0000      -0.384792       -10.4707
  59   0.0000      -0.384789       -10.4706
  60   0.0000      -0.340240        -9.2584
  61   0.0000      -0.268150        -7.2967

MULLIKEN ATOMIC CHARGES AND SPIN POPULATIONS
--------------------------------------------
   0 Cu:    0.549593    0.004464
   1 Cu:    0.549529    0.004422
   2 Cu:    0.549552    0.004447
   3 Cu:   -0.131100    0.542414
   4 H :    0.482425    0.444253
Sum of atomic charges         :    2.0000000

LOEWDIN ATOMIC CHARGES AND SPIN POPULATIONS
-------------------------------------------
   0 Cu:    0.494635    0.032138
   1 Cu:    0.494615    0.032145
   2 Cu:    0.494624    0.032138
   3 Cu:    0.413866    0.482742
   4 H :    0.102260    0.420836

  Mayer bond orders larger than 0.100000
B(  0-Cu,  1-Cu) :   0.3375 B(  0-Cu,  2-Cu) :   0.3375 B(  0-Cu,  3-Cu) :   0.2695
B(  1-Cu,  2-Cu) :   0.3375 B(  1-Cu,  3-Cu) :   0.2696 B(  2-Cu,  3-Cu) :   0.2696
B(  3-Cu,  4-H ) :   0.1074

FINAL SINGLE POINT ENERGY     -6561.372651663108

DIPOLE MOMENT
-------------
                                X             Y             Z
Electronic contribution:      0.00002       0.00007      -3.35775
Nuclear contribution   :      0.00000       0.00000       3.12710
                        -----------------------------------------
Total Dipole Moment    :      0.00002       0.00007      -0.23066
                        -----------------------------------------
Magnitude (a.u.)       :      0.23066
Magnitude (Debye)      :      0.58628

Rotational constants in cm-1:     0.044993     0.041927     0.041927
Rotational constants in MHz :  1348.855174  1256.945404  1256.945373

                             ****ORCA TERMINATED NORMALLY****
TOTAL RUN TIME: 0 days 0 hours 3 minutes 18 seconds 885 msec
