                         Program Version 4.2.0 -  RELEASE  -
|  1> #
|  2> # Cu04C2_NH3_F wB97X-V/Def2-TZVPPD
|  3> #
|  4> ! wb97x-v def2-tzvppd def2/jk grid4 nofinalgrid
|  5>
|  6> *xyz 2 1
|  7> Cu       0.253817    1.375381    0.000000
|  8> Cu       0.253817   -0.687598    1.191098
|  9> Cu       0.253817   -0.687598   -1.191098
| 10> Cu      -1.745352    0.000159    0.000000
| 11> N        2.725949   -0.000959   -0.000000
| 12> H        3.150217   -0.936878   -0.000000
| 13> H        3.150637    0.466806   -0.810419
| 14> H        3.150637    0.466806    0.810419
| 15> *
| 16>
| 17> %maxcore 5000
| 18>
| 19> %pal
| 20> nprocs = 24
| 21> end
| 22>
| 23>
| 24>                          ****END OF INPUT****

CARTESIAN COORDINATES (ANGSTROEM)
---------------------------------
  Cu     0.253817    1.375381    0.000000
  Cu     0.253817   -0.687598    1.191098
  Cu     0.253817   -0.687598   -1.191098
  Cu    -1.745352    0.000159    0.000000
  N      2.725949   -0.000959   -0.000000
  H      3.150217   -0.936878   -0.000000
  H      3.150637    0.466806   -0.810419
  H      3.150637    0.466806    0.810419

 Total Charge           Charge          ....    2
 Multiplicity           Mult            ....    1
 Number of Electrons    NEL             ....  124
 Basis Dimension        Dim             ....  356

ORBITAL ENERGIES
----------------

  NO   OCC          E(Eh)            E(eV)
   0   2.0000    -323.230443     -8795.5475
   1   2.0000    -323.230434     -8795.5473
   2   2.0000    -323.230430     -8795.5472
   3   2.0000    -323.223641     -8795.3624
   4   2.0000     -39.208874     -1066.9277
   5   2.0000     -39.208866     -1066.9275
   6   2.0000     -39.208840     -1066.9268
   7   2.0000     -39.203068     -1066.7697
   8   2.0000     -34.406684      -936.2535
   9   2.0000     -34.406668      -936.2530
  10   2.0000     -34.406662      -936.2529
  11   2.0000     -34.405967      -936.2340
  12   2.0000     -34.405959      -936.2338
  13   2.0000     -34.405950      -936.2335
  14   2.0000     -34.405349      -936.2171
  15   2.0000     -34.405340      -936.2169
  16   2.0000     -34.405335      -936.2168
  17   2.0000     -34.400360      -936.0814
  18   2.0000     -34.399960      -936.0705
  19   2.0000     -34.399959      -936.0705
  20   2.0000     -14.743815      -401.1996
  21   2.0000      -4.761526      -129.5677
  22   2.0000      -4.761093      -129.5559
  23   2.0000      -4.761087      -129.5558
  24   2.0000      -4.754275      -129.3704
  25   2.0000      -3.259568       -88.6974
  26   2.0000      -3.257904       -88.6521
  27   2.0000      -3.257902       -88.6520
  28   2.0000      -3.256011       -88.6006
  29   2.0000      -3.255861       -88.5965
  30   2.0000      -3.255851       -88.5962
  31   2.0000      -3.254991       -88.5728
  32   2.0000      -3.254237       -88.5523
  33   2.0000      -3.254230       -88.5521
  34   2.0000      -3.249982       -88.4365
  35   2.0000      -3.248213       -88.3884
  36   2.0000      -3.248211       -88.3883
  37   2.0000      -1.323859       -36.0240
  38   2.0000      -0.906411       -24.6647
  39   2.0000      -0.906406       -24.6646
  40   2.0000      -0.818431       -22.2706
  41   2.0000      -0.800244       -21.7757
  42   2.0000      -0.781131       -21.2557
  43   2.0000      -0.781118       -21.2553
  44   2.0000      -0.771764       -21.0008
  45   2.0000      -0.769933       -20.9509
  46   2.0000      -0.769930       -20.9508
  47   2.0000      -0.757764       -20.6198
  48   2.0000      -0.757474       -20.6119
  49   2.0000      -0.757472       -20.6119
  50   2.0000      -0.737896       -20.0792
  51   2.0000      -0.737736       -20.0748
  52   2.0000      -0.737735       -20.0748
  53   2.0000      -0.736330       -20.0366
  54   2.0000      -0.736312       -20.0361
  55   2.0000      -0.732802       -19.9406
  56   2.0000      -0.732802       -19.9406
  57   2.0000      -0.729282       -19.8448
  58   2.0000      -0.716743       -19.5036
  59   2.0000      -0.714427       -19.4406
  60   2.0000      -0.714406       -19.4400
  61   2.0000      -0.682417       -18.5695
  62   0.0000      -0.355132        -9.6636
  63   0.0000      -0.355129        -9.6635
  64   0.0000      -0.330844        -9.0027
  65   0.0000      -0.257990        -7.0203
  66   0.0000      -0.231893        -6.3101

MULLIKEN ATOMIC CHARGES
-----------------------
   0 Cu:    0.484197
   1 Cu:    0.484276
   2 Cu:    0.484276
   3 Cu:    0.265708
   4 N :   -0.376658
   5 H :    0.219421
   6 H :    0.219392
   7 H :    0.219388
Sum of atomic charges:    2.0000000

LOEWDIN ATOMIC CHARGES
----------------------
   0 Cu:    0.414551
   1 Cu:    0.414456
   2 Cu:    0.414456
   3 Cu:    0.487277
   4 N :    0.486386
   5 H :   -0.072376
   6 H :   -0.072375
   7 H :   -0.072375

  Mayer bond orders larger than 0.100000
B(  0-Cu,  1-Cu) :   0.3501 B(  0-Cu,  2-Cu) :   0.3501 B(  0-Cu,  3-Cu) :   0.4054
B(  1-Cu,  2-Cu) :   0.3500 B(  1-Cu,  3-Cu) :   0.4052 B(  2-Cu,  3-Cu) :   0.4052
B(  4-N ,  5-H ) :   0.9977 B(  4-N ,  6-H ) :   0.9977 B(  4-N ,  7-H ) :   0.9977

FINAL SINGLE POINT ENERGY     -6617.459314642316

DIPOLE MOMENT
-------------
                                X             Y             Z
Electronic contribution:    -11.51421       0.00414       0.00000
Nuclear contribution   :     13.00779      -0.00451       0.00000
                        -----------------------------------------
Total Dipole Moment    :      1.49358      -0.00038       0.00000
                        -----------------------------------------
Magnitude (a.u.)       :      1.49358
Magnitude (Debye)      :      3.79638

Rotational constants in cm-1:     0.046405     0.032369     0.032369
Rotational constants in MHz :  1391.178817   970.405392   970.384771

                             ****ORCA TERMINATED NORMALLY****
TOTAL RUN TIME: 0 days 0 hours 1 minutes 5 seconds 428 msec
