                         Program Version 4.2.0 -  RELEASE  -
|  1> #
|  2> # Cu04C2_H_E wB97X-V/Def2-TZVPPD
|  3> #
|  4> ! wb97x-v def2-tzvppd def2/jk grid4 nofinalgrid
|  5>
|  6> *xyz 2 2
|  7> Cu      -0.967673    0.056725    1.180703
|  8> Cu      -0.972439   -0.054931   -1.177653
|  9> Cu       0.936359    1.185605   -0.057167
| 10> Cu       0.933653   -1.187345    0.053806
| 11> H        2.032882   -0.001578    0.009000
| 12> *
| 13>
| 14> %maxcore 5000
| 15>
| 16> %pal
| 17> nprocs = 24
| 18> end
| 19>
| 20>
| 21>                          ****END OF INPUT****

CARTESIAN COORDINATES (ANGSTROEM)
---------------------------------
  Cu    -0.967673    0.056725    1.180703
  Cu    -0.972439   -0.054931   -1.177653
  Cu     0.936359    1.185605   -0.057167
  Cu     0.933653   -1.187345    0.053806
  H      2.032882   -0.001578    0.009000

 Total Charge           Charge          ....    2
 Multiplicity           Mult            ....    2
 Number of Electrons    NEL             ....  115
 Basis Dimension        Dim             ....  285

ORBITAL ENERGIES
----------------
                 SPIN UP ORBITALS
  NO   OCC          E(Eh)            E(eV)
   0   1.0000    -323.289762     -8797.1617
   1   1.0000    -323.289715     -8797.1604
   2   1.0000    -323.266298     -8796.5232
   3   1.0000    -323.266252     -8796.5219
   4   1.0000     -39.273712     -1068.6920
   5   1.0000     -39.273660     -1068.6906
   6   1.0000     -39.244372     -1067.8937
   7   1.0000     -39.244325     -1067.8924
   8   1.0000     -34.472988      -938.0577
   9   1.0000     -34.472939      -938.0564
  10   1.0000     -34.470062      -937.9781
  11   1.0000     -34.470015      -937.9768
  12   1.0000     -34.467342      -937.9041
  13   1.0000     -34.467294      -937.9028
  14   1.0000     -34.441717      -937.2068
  15   1.0000     -34.441677      -937.2057
  16   1.0000     -34.441523      -937.2015
  17   1.0000     -34.441475      -937.2002
  18   1.0000     -34.441303      -937.1955
  19   1.0000     -34.441262      -937.1944
  20   1.0000      -4.825620      -131.3118
  21   1.0000      -4.825320      -131.3036
  22   1.0000      -4.796913      -130.5306
  23   1.0000      -4.796589      -130.5218
  24   1.0000      -3.327380       -90.5426
  25   1.0000      -3.325452       -90.4901
  26   1.0000      -3.320425       -90.3534
  27   1.0000      -3.319233       -90.3209
  28   1.0000      -3.314003       -90.1786
  29   1.0000      -3.313777       -90.1725
  30   1.0000      -3.294399       -89.6452
  31   1.0000      -3.291756       -89.5732
  32   1.0000      -3.291417       -89.5640
  33   1.0000      -3.290790       -89.5470
  34   1.0000      -3.290752       -89.5459
  35   1.0000      -3.290602       -89.5418
  36   1.0000      -0.915216       -24.9043
  37   1.0000      -0.861401       -23.4399
  38   1.0000      -0.831898       -22.6371
  39   1.0000      -0.831621       -22.6295
  40   1.0000      -0.824935       -22.4476
  41   1.0000      -0.816680       -22.2230
  42   1.0000      -0.814761       -22.1708
  43   1.0000      -0.812725       -22.1154
  44   1.0000      -0.809691       -22.0328
  45   1.0000      -0.799075       -21.7439
  46   1.0000      -0.797917       -21.7124
  47   1.0000      -0.794862       -21.6293
  48   1.0000      -0.790393       -21.5077
  49   1.0000      -0.787374       -21.4255
  50   1.0000      -0.779010       -21.1979
  51   1.0000      -0.775339       -21.0981
  52   1.0000      -0.774800       -21.0834
  53   1.0000      -0.773068       -21.0362
  54   1.0000      -0.770265       -20.9600
  55   1.0000      -0.764378       -20.7998
  56   1.0000      -0.759264       -20.6606
  57   1.0000      -0.686422       -18.6785
  58   0.0000      -0.389893       -10.6095
  59   0.0000      -0.383659       -10.4399
  60   0.0000      -0.326462        -8.8835
  61   0.0000      -0.279582        -7.6078
  62   0.0000      -0.267697        -7.2844

                 SPIN DOWN ORBITALS
  NO   OCC          E(Eh)            E(eV)
   0   1.0000    -323.289593     -8797.1571
   1   1.0000    -323.289547     -8797.1558
   2   1.0000    -323.265972     -8796.5143
   3   1.0000    -323.265923     -8796.5130
   4   1.0000     -39.269784     -1068.5851
   5   1.0000     -39.269732     -1068.5837
   6   1.0000     -39.244153     -1067.8877
   7   1.0000     -39.244115     -1067.8867
   8   1.0000     -34.467910      -937.9195
   9   1.0000     -34.467859      -937.9181
  10   1.0000     -34.466766      -937.8884
  11   1.0000     -34.466718      -937.8871
  12   1.0000     -34.465935      -937.8658
  13   1.0000     -34.465887      -937.8645
  14   1.0000     -34.441583      -937.2031
  15   1.0000     -34.441547      -937.2021
  16   1.0000     -34.441365      -937.1972
  17   1.0000     -34.441328      -937.1962
  18   1.0000     -34.441132      -937.1908
  19   1.0000     -34.441103      -937.1901
  20   1.0000      -4.817922      -131.1023
  21   1.0000      -4.817627      -131.0943
  22   1.0000      -4.796271      -130.5132
  23   1.0000      -4.795952      -130.5045
  24   1.0000      -3.314331       -90.1875
  25   1.0000      -3.312058       -90.1257
  26   1.0000      -3.311683       -90.1155
  27   1.0000      -3.311186       -90.1019
  28   1.0000      -3.310627       -90.0867
  29   1.0000      -3.310427       -90.0813
  30   1.0000      -3.293358       -89.6168
  31   1.0000      -3.291662       -89.5707
  32   1.0000      -3.291054       -89.5541
  33   1.0000      -3.290681       -89.5440
  34   1.0000      -3.290519       -89.5396
  35   1.0000      -3.289643       -89.5157
  36   1.0000      -0.881713       -23.9926
  37   1.0000      -0.850091       -23.1321
  38   1.0000      -0.827834       -22.5265
  39   1.0000      -0.826399       -22.4875
  40   1.0000      -0.820592       -22.3294
  41   1.0000      -0.811686       -22.0871
  42   1.0000      -0.811379       -22.0788
  43   1.0000      -0.807883       -21.9836
  44   1.0000      -0.797898       -21.7119
  45   1.0000      -0.791587       -21.5402
  46   1.0000      -0.790913       -21.5218
  47   1.0000      -0.788093       -21.4451
  48   1.0000      -0.782907       -21.3040
  49   1.0000      -0.781471       -21.2649
  50   1.0000      -0.777459       -21.1557
  51   1.0000      -0.771952       -21.0059
  52   1.0000      -0.770636       -20.9701
  53   1.0000      -0.765597       -20.8329
  54   1.0000      -0.764269       -20.7968
  55   1.0000      -0.755105       -20.5475
  56   1.0000      -0.753627       -20.5072
  57   0.0000      -0.449081       -12.2201
  58   0.0000      -0.383587       -10.4379
  59   0.0000      -0.380043       -10.3415
  60   0.0000      -0.304565        -8.2876
  61   0.0000      -0.276773        -7.5314

MULLIKEN ATOMIC CHARGES AND SPIN POPULATIONS
--------------------------------------------
   0 Cu:    0.401196    0.257065
   1 Cu:    0.400389    0.260065
   2 Cu:    0.377291    0.083989
   3 Cu:    0.377005    0.084000
   4 H :    0.444118    0.314881
Sum of atomic charges         :    2.0000000

LOEWDIN ATOMIC CHARGES AND SPIN POPULATIONS
-------------------------------------------
   0 Cu:    0.516326    0.123430
   1 Cu:    0.516713    0.123322
   2 Cu:    0.477267    0.292532
   3 Cu:    0.477065    0.292616
   4 H :    0.012628    0.168100

  Mayer bond orders larger than 0.100000
B(  0-Cu,  1-Cu) :   0.5893 B(  0-Cu,  2-Cu) :   0.2532 B(  0-Cu,  3-Cu) :   0.2534
B(  1-Cu,  2-Cu) :   0.2519 B(  1-Cu,  3-Cu) :   0.2525 B(  2-Cu,  3-Cu) :   0.6281
B(  2-Cu,  4-H ) :   0.2337 B(  3-Cu,  4-H ) :   0.2334

FINAL SINGLE POINT ENERGY     -6561.397634620442

DIPOLE MOMENT
-------------
                                X             Y             Z
Electronic contribution:     -2.36066       0.00227      -0.01104
Nuclear contribution   :      2.08414      -0.00162       0.00923
                        -----------------------------------------
Total Dipole Moment    :     -0.27652       0.00065      -0.00181
                        -----------------------------------------
Magnitude (a.u.)       :      0.27653
Magnitude (Debye)      :      0.70288

Rotational constants in cm-1:     0.047295     0.040918     0.040701
Rotational constants in MHz :  1417.862725  1226.705268  1220.194326

                             ****ORCA TERMINATED NORMALLY****
TOTAL RUN TIME: 0 days 0 hours 0 minutes 44 seconds 936 msec
