                         Program Version 4.2.0 -  RELEASE  -
|  1> #
|  2> # Cu04N0 wB97X-V/Def2-TZVPPD
|  3> #
|  4> ! wb97x-v def2-tzvppd def2/jk grid4 nofinalgrid
|  5>
|  6> *xyz 0 1
|  7> Cu      -0.387876   -0.085256    2.052405
|  8> Cu       1.110029    0.096858    0.214111
|  9> Cu       0.386859    0.085217   -2.052443
| 10> Cu      -1.109011   -0.096818   -0.214073
| 11> *
| 12>
| 13> %maxcore 5000
| 14>
| 15> %pal
| 16> nprocs = 24
| 17> end
| 18>
| 19>
| 20>                          ****END OF INPUT****

CARTESIAN COORDINATES (ANGSTROEM)
---------------------------------
  Cu    -0.387876   -0.085256    2.052405
  Cu     1.110029    0.096858    0.214111
  Cu     0.386859    0.085217   -2.052443
  Cu    -1.109011   -0.096818   -0.214073

 Total Charge           Charge          ....    0
 Multiplicity           Mult            ....    1
 Number of Electrons    NEL             ....  116
 Basis Dimension        Dim             ....  268

ORBITAL ENERGIES
----------------

  NO   OCC          E(Eh)            E(eV)
   0   2.0000    -322.858190     -8785.4180
   1   2.0000    -322.858181     -8785.4177
   2   2.0000    -322.836284     -8784.8219
   3   2.0000    -322.836269     -8784.8215
   4   2.0000     -38.840558     -1056.9053
   5   2.0000     -38.840524     -1056.9044
   6   2.0000     -38.819564     -1056.3340
   7   2.0000     -38.819535     -1056.3333
   8   2.0000     -34.037795      -926.2155
   9   2.0000     -34.037784      -926.2152
  10   2.0000     -34.037152      -926.1980
  11   2.0000     -34.037142      -926.1977
  12   2.0000     -34.036818      -926.1889
  13   2.0000     -34.036811      -926.1887
  14   2.0000     -34.016990      -925.6494
  15   2.0000     -34.016974      -925.6489
  16   2.0000     -34.016254      -925.6293
  17   2.0000     -34.016237      -925.6289
  18   2.0000     -34.015160      -925.5996
  19   2.0000     -34.015144      -925.5991
  20   2.0000      -4.391422      -119.4967
  21   2.0000      -4.390891      -119.4822
  22   2.0000      -4.367895      -118.8565
  23   2.0000      -4.367873      -118.8559
  24   2.0000      -2.890558       -78.6561
  25   2.0000      -2.885881       -78.5288
  26   2.0000      -2.885125       -78.5082
  27   2.0000      -2.884663       -78.4957
  28   2.0000      -2.884286       -78.4854
  29   2.0000      -2.883937       -78.4759
  30   2.0000      -2.864290       -77.9413
  31   2.0000      -2.864174       -77.9381
  32   2.0000      -2.862016       -77.8794
  33   2.0000      -2.861967       -77.8781
  34   2.0000      -2.859445       -77.8094
  35   2.0000      -2.859425       -77.8089
  36   2.0000      -0.423871       -11.5341
  37   2.0000      -0.422515       -11.4972
  38   2.0000      -0.404253       -11.0003
  39   2.0000      -0.399799       -10.8791
  40   2.0000      -0.399449       -10.8696
  41   2.0000      -0.393557       -10.7092
  42   2.0000      -0.380581       -10.3561
  43   2.0000      -0.373785       -10.1712
  44   2.0000      -0.364747        -9.9253
  45   2.0000      -0.364675        -9.9233
  46   2.0000      -0.362913        -9.8754
  47   2.0000      -0.353982        -9.6323
  48   2.0000      -0.353866        -9.6292
  49   2.0000      -0.352321        -9.5871
  50   2.0000      -0.348427        -9.4812
  51   2.0000      -0.347857        -9.4657
  52   2.0000      -0.345443        -9.4000
  53   2.0000      -0.342394        -9.3170
  54   2.0000      -0.341741        -9.2993
  55   2.0000      -0.337358        -9.1800
  56   2.0000      -0.328449        -8.9375
  57   2.0000      -0.238607        -6.4928
  58   0.0000      -0.030176        -0.8211
  59   0.0000       0.005172         0.1407
  60   0.0000       0.010912         0.2969
  61   0.0000       0.042700         1.1619
  62   0.0000       0.048088         1.3086

MULLIKEN ATOMIC CHARGES
-----------------------
   0 Cu:   -0.386332
   1 Cu:    0.386282
   2 Cu:   -0.386421
   3 Cu:    0.386471
Sum of atomic charges:   -0.0000000

LOEWDIN ATOMIC CHARGES
----------------------
   0 Cu:    0.168165
   1 Cu:   -0.167882
   2 Cu:    0.168167
   3 Cu:   -0.168450

  Mayer bond orders larger than 0.100000
B(  0-Cu,  1-Cu) :   0.3850 B(  0-Cu,  2-Cu) :   0.1221 B(  0-Cu,  3-Cu) :   0.3833
B(  1-Cu,  2-Cu) :   0.3834 B(  1-Cu,  3-Cu) :   0.3340 B(  2-Cu,  3-Cu) :   0.3850

FINAL SINGLE POINT ENERGY     -6561.471574772085

DIPOLE MOMENT
-------------
                                X             Y             Z
Electronic contribution:      0.00092       0.00009       0.00001
Nuclear contribution   :      0.00000       0.00000      -0.00000
                        -----------------------------------------
Total Dipole Moment    :      0.00092       0.00009       0.00001
                        -----------------------------------------
Magnitude (a.u.)       :      0.00092
Magnitude (Debye)      :      0.00234

Rotational constants in cm-1:     0.103116     0.030352     0.023450
Rotational constants in MHz :  3091.345194   909.942810   703.010463

                             ****ORCA TERMINATED NORMALLY****
TOTAL RUN TIME: 0 days 0 hours 0 minutes 43 seconds 420 msec
