                         Program Version 4.2.0 -  RELEASE  -
|  1> #
|  2> # Cu04C2_NH3_A wB97X-V/Def2-TZVPPD
|  3> #
|  4> ! wb97x-v def2-tzvppd def2/jk grid4 nofinalgrid
|  5>
|  6> *xyz 2 1
|  7> Cu       0.543145   -0.896300    1.192832
|  8> Cu       0.543145   -0.896300   -1.192832
|  9> Cu      -1.492086   -0.543328    0.000000
| 10> Cu       0.211399    1.215580   -0.000000
| 11> N        0.543145    3.129666   -0.000000
| 12> H        0.146420    3.607894   -0.818022
| 13> H        0.146420    3.607894    0.818022
| 14> H        1.542647    3.366638   -0.000000
| 15> *
| 16>
| 17> %maxcore 5000
| 18>
| 19> %pal
| 20> nprocs = 24
| 21> end
| 22>
| 23>
| 24>                          ****END OF INPUT****

CARTESIAN COORDINATES (ANGSTROEM)
---------------------------------
  Cu     0.543145   -0.896300    1.192832
  Cu     0.543145   -0.896300   -1.192832
  Cu    -1.492086   -0.543328    0.000000
  Cu     0.211399    1.215580   -0.000000
  N      0.543145    3.129666   -0.000000
  H      0.146420    3.607894   -0.818022
  H      0.146420    3.607894    0.818022
  H      1.542647    3.366638   -0.000000

 Total Charge           Charge          ....    2
 Multiplicity           Mult            ....    1
 Number of Electrons    NEL             ....  124
 Basis Dimension        Dim             ....  356

ORBITAL ENERGIES
----------------

  NO   OCC          E(Eh)            E(eV)
   0   2.0000    -323.229621     -8795.5251
   1   2.0000    -323.229619     -8795.5251
   2   2.0000    -323.229613     -8795.5249
   3   2.0000    -323.217187     -8795.1868
   4   2.0000     -39.208563     -1066.9192
   5   2.0000     -39.208561     -1066.9192
   6   2.0000     -39.208526     -1066.9182
   7   2.0000     -39.203026     -1066.7686
   8   2.0000     -34.405796      -936.2293
   9   2.0000     -34.405781      -936.2289
  10   2.0000     -34.405778      -936.2288
  11   2.0000     -34.405643      -936.2251
  12   2.0000     -34.405641      -936.2251
  13   2.0000     -34.405628      -936.2247
  14   2.0000     -34.405466      -936.2203
  15   2.0000     -34.405464      -936.2203
  16   2.0000     -34.405455      -936.2200
  17   2.0000     -34.399363      -936.0543
  18   2.0000     -34.399314      -936.0529
  19   2.0000     -34.399313      -936.0529
  20   2.0000     -14.756347      -401.5406
  21   2.0000      -4.760594      -129.5423
  22   2.0000      -4.760174      -129.5309
  23   2.0000      -4.760172      -129.5309
  24   2.0000      -4.751355      -129.2909
  25   2.0000      -3.258397       -88.6655
  26   2.0000      -3.256315       -88.6088
  27   2.0000      -3.256309       -88.6087
  28   2.0000      -3.254668       -88.5640
  29   2.0000      -3.254655       -88.5637
  30   2.0000      -3.254644       -88.5634
  31   2.0000      -3.254137       -88.5496
  32   2.0000      -3.253877       -88.5425
  33   2.0000      -3.253875       -88.5424
  34   2.0000      -3.246166       -88.3327
  35   2.0000      -3.244580       -88.2895
  36   2.0000      -3.244570       -88.2892
  37   2.0000      -1.336684       -36.3730
  38   2.0000      -0.919283       -25.0150
  39   2.0000      -0.919262       -25.0144
  40   2.0000      -0.840348       -22.8670
  41   2.0000      -0.795721       -21.6527
  42   2.0000      -0.778162       -21.1749
  43   2.0000      -0.777509       -21.1571
  44   2.0000      -0.777499       -21.1568
  45   2.0000      -0.767090       -20.8736
  46   2.0000      -0.767078       -20.8733
  47   2.0000      -0.760711       -20.7000
  48   2.0000      -0.755172       -20.5493
  49   2.0000      -0.755154       -20.5488
  50   2.0000      -0.736835       -20.0503
  51   2.0000      -0.735685       -20.0190
  52   2.0000      -0.735675       -20.0187
  53   2.0000      -0.734008       -19.9734
  54   2.0000      -0.734004       -19.9733
  55   2.0000      -0.729117       -19.8403
  56   2.0000      -0.729104       -19.8399
  57   2.0000      -0.719937       -19.5905
  58   2.0000      -0.715188       -19.4613
  59   2.0000      -0.710539       -19.3347
  60   2.0000      -0.710538       -19.3347
  61   2.0000      -0.697645       -18.9839
  62   0.0000      -0.352011        -9.5787
  63   0.0000      -0.351990        -9.5781
  64   0.0000      -0.324492        -8.8299
  65   0.0000      -0.245970        -6.6932
  66   0.0000      -0.224475        -6.1083

MULLIKEN ATOMIC CHARGES
-----------------------
   0 Cu:    0.500279
   1 Cu:    0.500286
   2 Cu:    0.500276
   3 Cu:    0.104538
   4 N :   -0.285545
   5 H :    0.226686
   6 H :    0.226688
   7 H :    0.226791
Sum of atomic charges:    2.0000000

LOEWDIN ATOMIC CHARGES
----------------------
   0 Cu:    0.464750
   1 Cu:    0.464750
   2 Cu:    0.464765
   3 Cu:    0.264716
   4 N :    0.477120
   5 H :   -0.045360
   6 H :   -0.045360
   7 H :   -0.045379

  Mayer bond orders larger than 0.100000
B(  0-Cu,  1-Cu) :   0.3540 B(  0-Cu,  2-Cu) :   0.3542 B(  0-Cu,  3-Cu) :   0.2496
B(  1-Cu,  2-Cu) :   0.3542 B(  1-Cu,  3-Cu) :   0.2496 B(  2-Cu,  3-Cu) :   0.2496
B(  3-Cu,  4-N ) :   0.3439 B(  4-N ,  5-H ) :   0.9773 B(  4-N ,  6-H ) :   0.9773
B(  4-N ,  7-H ) :   0.9772

FINAL SINGLE POINT ENERGY     -6617.508998994816

DIPOLE MOMENT
-------------
                                X             Y             Z
Electronic contribution:     -2.29920     -13.25108       0.00000
Nuclear contribution   :      2.54223      14.65497       0.00000
                        -----------------------------------------
Total Dipole Moment    :      0.24302       1.40389       0.00000
                        -----------------------------------------
Magnitude (a.u.)       :      1.42477
Magnitude (Debye)      :      3.62149

Rotational constants in cm-1:     0.046273     0.029218     0.029214
Rotational constants in MHz :  1387.222495   875.924520   875.809559

                             ****ORCA TERMINATED NORMALLY****
TOTAL RUN TIME: 0 days 0 hours 1 minutes 12 seconds 458 msec
