                         Program Version 4.2.0 -  RELEASE  -
|  1> #
|  2> # Cu04C2 wB97X-V/Def2-TZVPPD
|  3> #
|  4> ! wb97x-v def2-tzvppd def2/jk grid4 nofinalgrid
|  5>
|  6> *xyz 2 1
|  7> Cu      -0.000001   -0.000007    1.488630
|  8> Cu       0.000001   -1.403449   -0.496203
|  9> Cu       1.215485    0.701727   -0.496214
| 10> Cu      -1.215485    0.701729   -0.496213
| 11> *
| 12>
| 13> %maxcore 5000
| 14>
| 15> %pal
| 16> nprocs = 24
| 17> end
| 18>
| 19>
| 20>                          ****END OF INPUT****

CARTESIAN COORDINATES (ANGSTROEM)
---------------------------------
  Cu    -0.000001   -0.000007    1.488630
  Cu     0.000001   -1.403449   -0.496203
  Cu     1.215485    0.701727   -0.496214
  Cu    -1.215485    0.701729   -0.496213

 Total Charge           Charge          ....    2
 Multiplicity           Mult            ....    1
 Number of Electrons    NEL             ....  114
 Basis Dimension        Dim             ....  268

ORBITAL ENERGIES
----------------

  NO   OCC          E(Eh)            E(eV)
   0   2.0000    -323.263882     -8796.4574
   1   2.0000    -323.263873     -8796.4572
   2   2.0000    -323.263866     -8796.4570
   3   2.0000    -323.263860     -8796.4568
   4   2.0000     -39.242250     -1067.8359
   5   2.0000     -39.242241     -1067.8357
   6   2.0000     -39.242236     -1067.8355
   7   2.0000     -39.242185     -1067.8341
   8   2.0000     -34.439456      -937.1452
   9   2.0000     -34.439447      -937.1450
  10   2.0000     -34.439442      -937.1449
  11   2.0000     -34.439426      -937.1444
  12   2.0000     -34.439364      -937.1427
  13   2.0000     -34.439364      -937.1427
  14   2.0000     -34.439356      -937.1425
  15   2.0000     -34.439347      -937.1423
  16   2.0000     -34.439342      -937.1421
  17   2.0000     -34.439340      -937.1421
  18   2.0000     -34.439337      -937.1420
  19   2.0000     -34.439334      -937.1419
  20   2.0000      -4.794657      -130.4692
  21   2.0000      -4.794238      -130.4578
  22   2.0000      -4.794229      -130.4576
  23   2.0000      -4.794227      -130.4576
  24   2.0000      -3.292674       -89.5982
  25   2.0000      -3.290417       -89.5368
  26   2.0000      -3.290412       -89.5367
  27   2.0000      -3.290412       -89.5366
  28   2.0000      -3.289295       -89.5063
  29   2.0000      -3.289292       -89.5062
  30   2.0000      -3.288229       -89.4773
  31   2.0000      -3.288227       -89.4772
  32   2.0000      -3.288223       -89.4771
  33   2.0000      -3.288077       -89.4731
  34   2.0000      -3.288077       -89.4731
  35   2.0000      -3.288072       -89.4730
  36   2.0000      -0.846735       -23.0408
  37   2.0000      -0.814541       -22.1648
  38   2.0000      -0.814537       -22.1647
  39   2.0000      -0.814523       -22.1643
  40   2.0000      -0.803409       -21.8619
  41   2.0000      -0.803404       -21.8617
  42   2.0000      -0.793597       -21.5949
  43   2.0000      -0.793595       -21.5948
  44   2.0000      -0.793577       -21.5943
  45   2.0000      -0.771902       -21.0045
  46   2.0000      -0.771887       -21.0041
  47   2.0000      -0.771881       -21.0040
  48   2.0000      -0.769743       -20.9458
  49   2.0000      -0.769721       -20.9452
  50   2.0000      -0.769703       -20.9447
  51   2.0000      -0.769539       -20.9402
  52   2.0000      -0.769532       -20.9400
  53   2.0000      -0.752425       -20.4745
  54   2.0000      -0.750749       -20.4289
  55   2.0000      -0.750740       -20.4287
  56   2.0000      -0.750726       -20.4283
  57   0.0000      -0.381529       -10.3819
  58   0.0000      -0.381527       -10.3819
  59   0.0000      -0.381527       -10.3819
  60   0.0000      -0.275284        -7.4909
  61   0.0000      -0.250300        -6.8110

MULLIKEN ATOMIC CHARGES
-----------------------
   0 Cu:    0.499987
   1 Cu:    0.499974
   2 Cu:    0.500015
   3 Cu:    0.500024
Sum of atomic charges:    2.0000000

LOEWDIN ATOMIC CHARGES
----------------------
   0 Cu:    0.499998
   1 Cu:    0.500003
   2 Cu:    0.499999
   3 Cu:    0.500000

  Mayer bond orders larger than 0.100000
B(  0-Cu,  1-Cu) :   0.3561 B(  0-Cu,  2-Cu) :   0.3561 B(  0-Cu,  3-Cu) :   0.3561
B(  1-Cu,  2-Cu) :   0.3561 B(  1-Cu,  3-Cu) :   0.3561 B(  2-Cu,  3-Cu) :   0.3560

FINAL SINGLE POINT ENERGY     -6560.847094409100

DIPOLE MOMENT
-------------
                                X             Y             Z
Electronic contribution:     -0.00000      -0.00003      -0.00002
Nuclear contribution   :      0.00000       0.00000      -0.00000
                        -----------------------------------------
Total Dipole Moment    :     -0.00000      -0.00003      -0.00002
                        -----------------------------------------
Magnitude (a.u.)       :      0.00003
Magnitude (Debye)      :      0.00009

Rotational constants in cm-1:     0.044890     0.044889     0.044888
Rotational constants in MHz :  1345.776498  1345.751239  1345.708462

                             ****ORCA TERMINATED NORMALLY****
TOTAL RUN TIME: 0 days 0 hours 0 minutes 34 seconds 317 msec
