                         Program Version 4.2.0 -  RELEASE  -
|  1> #
|  2> # NH3 wB97X-V/Def2-TZVPPD
|  3> #
|  4> ! wb97x-v def2-tzvppd def2/jk grid4 nofinalgrid
|  5>
|  6> *xyz 0 1
|  7> N       -0.000000    0.125670    0.000000
|  8> H       -0.933163   -0.293418    0.000000
|  9> H        0.466582   -0.293138    0.808252
| 10> H        0.466582   -0.293138   -0.808252
| 11> *
| 12>
| 13> %maxcore 5000
| 14>
| 15> %pal
| 16> nprocs = 24
| 17> end
| 18>
| 19>
| 20>                          ****END OF INPUT****

CARTESIAN COORDINATES (ANGSTROEM)
---------------------------------
  N     -0.000000    0.125670    0.000000
  H     -0.933163   -0.293418    0.000000
  H      0.466582   -0.293138    0.808252
  H      0.466582   -0.293138   -0.808252

 Total Charge           Charge          ....    0
 Multiplicity           Mult            ....    1
 Number of Electrons    NEL             ....   10
 Basis Dimension        Dim             ....   88

ORBITAL ENERGIES
----------------

  NO   OCC          E(Eh)            E(eV)
   0   2.0000     -14.395249      -391.7146
   1   2.0000      -0.985283       -26.8109
   2   2.0000      -0.568582       -15.4719
   3   2.0000      -0.568532       -15.4706
   4   2.0000      -0.387313       -10.5393
   5   0.0000       0.065331         1.7777
   6   0.0000       0.145148         3.9497
   7   0.0000       0.145153         3.9498
   8   0.0000       0.192673         5.2429
   9   0.0000       0.209462         5.6998

MULLIKEN ATOMIC CHARGES
-----------------------
   0 N :   -0.330541
   1 H :    0.110125
   2 H :    0.110208
   3 H :    0.110208
Sum of atomic charges:   -0.0000000

LOEWDIN ATOMIC CHARGES
----------------------
   0 N :    0.442301
   1 H :   -0.147417
   2 H :   -0.147442
   3 H :   -0.147442

  Mayer bond orders larger than 0.100000
B(  0-N ,  1-H ) :   1.0231 B(  0-N ,  2-H ) :   1.0231 B(  0-N ,  3-H ) :   1.0231

FINAL SINGLE POINT ENERGY       -56.563462569236

DIPOLE MOMENT
-------------
                                X             Y             Z
Electronic contribution:      0.00007       0.31631       0.00000
Nuclear contribution   :      0.00000      -0.96926       0.00000
                        -----------------------------------------
Total Dipole Moment    :      0.00007      -0.65294       0.00000
                        -----------------------------------------
Magnitude (a.u.)       :      0.65294
Magnitude (Debye)      :      1.65965

Rotational constants in cm-1:     9.616093     9.614148     6.400903
Rotational constants in MHz : 288283.214631 288224.911301 191894.257358

                             ****ORCA TERMINATED NORMALLY****
TOTAL RUN TIME: 0 days 0 hours 0 minutes 3 seconds 98 msec
