                         Program Version 4.2.0 -  RELEASE  -
|  1> #
|  2> # Ag01N0_H wB97M-V/Def2-TZVPPD
|  3> #
|  4> ! wb97m-v def2-tzvppd def2/jk grid4 nofinalgrid opt xyzfile numfreq numgrad
|  5>
|  6> *xyz 0 1
|  7> Ag       0.000000    0.000000    0.033547
|  8> H        0.000000    0.000000   -1.576706
|  9> *
| 10>
| 11> %maxcore 5000
| 12>
| 13> %pal
| 14> nprocs = 24
| 15> end
| 16>
| 17>
| 18>                          ****END OF INPUT****
 Total Charge           Charge          ....    0
 Multiplicity           Mult            ....    1
 Number of Electrons    NEL             ....   20
FINAL SINGLE POINT ENERGY      -147.484481234708
FINAL SINGLE POINT ENERGY      -147.484501418787
FINAL SINGLE POINT ENERGY      -147.484530829467
                    ***********************HURRAY********************

CARTESIAN COORDINATES (ANGSTROEM)
---------------------------------
  Ag     0.000000    0.000000    0.041105
  H      0.000000    0.000000   -1.584264

 Multiplicity           Mult            ....    1
 Number of Electrons    NEL             ....   20
 Basis Dimension        Dim             ....   73

ORBITAL ENERGIES
----------------

  NO   OCC          E(Eh)            E(eV)
   0   2.0000      -3.881159      -105.6117
   1   2.0000      -2.471806       -67.2613
   2   2.0000      -2.464840       -67.0717
   3   2.0000      -2.464840       -67.0717
   4   2.0000      -0.488309       -13.2876
   5   2.0000      -0.449714       -12.2374
   6   2.0000      -0.449714       -12.2374
   7   2.0000      -0.442402       -12.0384
   8   2.0000      -0.442402       -12.0384
   9   2.0000      -0.330991        -9.0067
  10   0.0000      -0.023707        -0.6451
  11   0.0000       0.035369         0.9624
  12   0.0000       0.035369         0.9624
  13   0.0000       0.102635         2.7928
  14   0.0000       0.138591         3.7712

MULLIKEN ATOMIC CHARGES
-----------------------
   0 Ag:    0.006167
   1 H :   -0.006167
Sum of atomic charges:   -0.0000000

LOEWDIN ATOMIC CHARGES
----------------------
   0 Ag:    0.303385
   1 H :   -0.303385

  Mayer bond orders larger than 0.100000
B(  0-Ag,  1-H ) :   1.0529

FINAL SINGLE POINT ENERGY      -147.484530892348

DIPOLE MOMENT
-------------
                                X             Y             Z
Electronic contribution:      0.00000       0.00000       3.79090
Nuclear contribution   :      0.00000       0.00000      -2.50278
                        -----------------------------------------
Total Dipole Moment    :      0.00000       0.00000       1.28812
                        -----------------------------------------
Magnitude (a.u.)       :      1.28812
Magnitude (Debye)      :      3.27414

VIBRATIONAL FREQUENCIES
-----------------------

Scaling factor for frequencies =  1.000000000 (already applied!)

   0:         0.00 cm**-1
   1:         0.00 cm**-1
   2:         0.00 cm**-1
   3:         0.00 cm**-1
   4:         0.00 cm**-1
   5:      1772.97 cm**-1

IR SPECTRUM
-----------

 Mode    freq (cm**-1)   T**2         TX         TY         TZ
-------------------------------------------------------------------
   5:      1772.97  103.113270  ( -0.000029   0.000003  10.154470)

--------------------------
THERMOCHEMISTRY AT 298.15K
--------------------------

Temperature         ... 298.15 K
Pressure            ... 1.00 atm
Total Mass          ... 108.88 AMU
The molecule is recognized as being linear

Throughout the following assumptions are being made:
  (1) The electronic state is orbitally nondegenerate
  (2) There are no thermally accessible electronically excited states
  (3) Hindered rotations indicated by low frequency modes are not
      treated as such but are treated as vibrations and this may
      cause some error
  (4) All equations used are the standard statistical mechanics
      equations for an ideal gas
  (5) All vibrations are strictly harmonic

freq.    1772.97  E(vib)   ...       0.00

------------
INNER ENERGY
------------

The inner energy is: U= E(el) + E(ZPE) + E(vib) + E(rot) + E(trans)
    E(el)   - is the total energy from the electronic structure calculation
              = E(kin-el) + E(nuc-el) + E(el-el) + E(nuc-nuc)
    E(ZPE)  - the the zero temperature vibrational energy from the frequency calculation
    E(vib)  - the the finite temperature correction to E(ZPE) due to population
              of excited vibrational states
    E(rot)  - is the rotational thermal energy
    E(trans)- is the translational thermal energy

Summary of contributions to the inner energy U:
Electronic energy                ...   -147.48453088 Eh
Zero point energy                ...      0.00403912 Eh       2.53 kcal/mol
Thermal vibrational correction   ...      0.00000156 Eh       0.00 kcal/mol
Thermal rotational correction    ...      0.00094418 Eh       0.59 kcal/mol
Thermal translational correction ...      0.00141627 Eh       0.89 kcal/mol
-----------------------------------------------------------------------
Total thermal energy                   -147.47812975 Eh

Summary of corrections to the electronic energy:
(perhaps to be used in another calculation)
Total thermal correction                  0.00236201 Eh       1.48 kcal/mol
Non-thermal (ZPE) correction              0.00403912 Eh       2.53 kcal/mol
-----------------------------------------------------------------------
Total correction                          0.00640113 Eh       4.02 kcal/mol

--------
ENTHALPY
--------

The enthalpy is H = U + kB*T
                kB is Boltzmann's constant
Total free energy                 ...   -147.47812975 Eh
Thermal Enthalpy correction       ...      0.00094421 Eh       0.59 kcal/mol
-----------------------------------------------------------------------
Total Enthalpy                    ...   -147.47718555 Eh

Note: Rotational entropy computed according to Herzberg
Infrared and Raman Spectra, Chapter V,1, Van Nostrand Reinhold, 1945
Point Group:  Cinfv, Symmetry Number:   1
Rotational constants in cm-1:     0.000000     6.389577     6.389577

Vibrational entropy computed according to the QRRHO of S. Grimme
Chem.Eur.J. 2012 18 9955

-------
ENTROPY
-------

The entropy contributions are T*S = T*(S(el)+S(vib)+S(rot)+S(trans))
     S(el)   - electronic entropy
     S(vib)  - vibrational entropy
     S(rot)  - rotational entropy
     S(trans)- translational entropy
The entropies will be listed as mutliplied by the temperature to get
units of energy

Electronic entropy                ...      0.00000000 Eh      0.00 kcal/mol
Vibrational entropy               ...      0.00000174 Eh      0.00 kcal/mol
Rotational entropy                ...      0.00422912 Eh      2.65 kcal/mol
Translational entropy             ...      0.01899171 Eh     11.92 kcal/mol
-----------------------------------------------------------------------
Final entropy term                ...      0.02322256 Eh     14.57 kcal/mol

In case the symmetry of your molecule has not been determined correctly
or in case you have a reason to use a different symmetry number we print
out the resulting rotational entropy values for sn=1,12 :
 --------------------------------------------------------
|  sn= 1 | S(rot)=             -inf Eh      -inf kcal/mol|
|  sn= 2 | S(rot)=             -inf Eh      -inf kcal/mol|
|  sn= 3 | S(rot)=             -inf Eh      -inf kcal/mol|
|  sn= 4 | S(rot)=             -inf Eh      -inf kcal/mol|
|  sn= 5 | S(rot)=             -inf Eh      -inf kcal/mol|
|  sn= 6 | S(rot)=             -inf Eh      -inf kcal/mol|
|  sn= 7 | S(rot)=             -inf Eh      -inf kcal/mol|
|  sn= 8 | S(rot)=             -inf Eh      -inf kcal/mol|
|  sn= 9 | S(rot)=             -inf Eh      -inf kcal/mol|
|  sn=10 | S(rot)=             -inf Eh      -inf kcal/mol|
|  sn=11 | S(rot)=             -inf Eh      -inf kcal/mol|
|  sn=12 | S(rot)=             -inf Eh      -inf kcal/mol|
 --------------------------------------------------------

-------------------
GIBBS FREE ENERGY
-------------------

The Gibbs free energy is G = H - T*S

Total enthalpy                    ...   -147.47718555 Eh
Total entropy correction          ...     -0.02322256 Eh    -14.57 kcal/mol
-----------------------------------------------------------------------
Final Gibbs free energy         ...   -147.50040811 Eh

For completeness - the Gibbs free energy minus the electronic energy
G-E(el)                           ...     -0.01587723 Eh     -9.96 kcal/mol

                             ****ORCA TERMINATED NORMALLY****
TOTAL RUN TIME: 0 days 0 hours 2 minutes 40 seconds 592 msec
