                         Program Version 4.2.0 -  RELEASE  -
|  1> #
|  2> # Ag01N0_F wB97M-V/Def2-TZVPPD
|  3> #
|  4> ! wb97m-v def2-tzvppd def2/jk grid4 nofinalgrid opt xyzfile numfreq numgrad
|  5>
|  6> *xyz 0 1
|  7> Ag       0.000000    0.000000    0.317712
|  8> F        0.000000    0.000000   -1.659163
|  9> *
| 10>
| 11> %maxcore 5000
| 12>
| 13> %pal
| 14> nprocs = 24
| 15> end
| 16>
| 17>
| 18>                          ****END OF INPUT****
 Total Charge           Charge          ....    0
 Multiplicity           Mult            ....    1
 Number of Electrons    NEL             ....   28
FINAL SINGLE POINT ENERGY      -246.777794408404
FINAL SINGLE POINT ENERGY      -246.777851260397
FINAL SINGLE POINT ENERGY      -246.777915456770
FINAL SINGLE POINT ENERGY      -246.777915586618
                    ***********************HURRAY********************

CARTESIAN COORDINATES (ANGSTROEM)
---------------------------------
  Ag     0.000000    0.000000    0.327980
  F      0.000000    0.000000   -1.669431

 Multiplicity           Mult            ....    1
 Number of Electrons    NEL             ....   28
 Basis Dimension        Dim             ....   96

ORBITAL ENERGIES
----------------

  NO   OCC          E(Eh)            E(eV)
   0   2.0000     -24.773039      -674.1087
   1   2.0000      -3.901467      -106.1643
   2   2.0000      -2.489019       -67.7297
   3   2.0000      -2.488687       -67.7206
   4   2.0000      -2.488687       -67.7206
   5   2.0000      -1.157790       -31.5051
   6   2.0000      -0.505892       -13.7660
   7   2.0000      -0.484384       -13.1808
   8   2.0000      -0.484384       -13.1808
   9   2.0000      -0.469855       -12.7854
  10   2.0000      -0.469855       -12.7854
  11   2.0000      -0.392546       -10.6817
  12   2.0000      -0.392546       -10.6817
  13   2.0000      -0.386542       -10.5183
  14   0.0000      -0.058456        -1.5907
  15   0.0000       0.031733         0.8635
  16   0.0000       0.031733         0.8635
  17   0.0000       0.063478         1.7273
  18   0.0000       0.121264         3.2998

MULLIKEN ATOMIC CHARGES
-----------------------
   0 Ag:    0.723417
   1 F :   -0.723417
Sum of atomic charges:   -0.0000000

LOEWDIN ATOMIC CHARGES
----------------------
   0 Ag:    0.728008
   1 F :   -0.728008

  Mayer bond orders larger than 0.100000
B(  0-Ag,  1-F ) :   0.4442

FINAL SINGLE POINT ENERGY      -246.777915589855

DIPOLE MOMENT
-------------
                                X             Y             Z
Electronic contribution:     -0.00000       0.00000      20.56189
Nuclear contribution   :      0.00000       0.00000     -18.14472
                        -----------------------------------------
Total Dipole Moment    :     -0.00000       0.00000       2.41717
                        -----------------------------------------
Magnitude (a.u.)       :      2.41717
Magnitude (Debye)      :      6.14395

VIBRATIONAL FREQUENCIES
-----------------------

Scaling factor for frequencies =  1.000000000 (already applied!)

   0:         0.00 cm**-1
   1:         0.00 cm**-1
   2:         0.00 cm**-1
   3:         0.00 cm**-1
   4:         0.00 cm**-1
   5:       505.15 cm**-1

IR SPECTRUM
-----------

 Mode    freq (cm**-1)   T**2         TX         TY         TZ
-------------------------------------------------------------------
   5:       505.15   59.928087  (  0.000009  -0.000011   7.741323)

--------------------------
THERMOCHEMISTRY AT 298.15K
--------------------------

Temperature         ... 298.15 K
Pressure            ... 1.00 atm
Total Mass          ... 126.87 AMU
The molecule is recognized as being linear

Throughout the following assumptions are being made:
  (1) The electronic state is orbitally nondegenerate
  (2) There are no thermally accessible electronically excited states
  (3) Hindered rotations indicated by low frequency modes are not
      treated as such but are treated as vibrations and this may
      cause some error
  (4) All equations used are the standard statistical mechanics
      equations for an ideal gas
  (5) All vibrations are strictly harmonic

freq.     505.15  E(vib)   ...       0.14

------------
INNER ENERGY
------------

The inner energy is: U= E(el) + E(ZPE) + E(vib) + E(rot) + E(trans)
    E(el)   - is the total energy from the electronic structure calculation
              = E(kin-el) + E(nuc-el) + E(el-el) + E(nuc-nuc)
    E(ZPE)  - the the zero temperature vibrational energy from the frequency calculation
    E(vib)  - the the finite temperature correction to E(ZPE) due to population
              of excited vibrational states
    E(rot)  - is the rotational thermal energy
    E(trans)- is the translational thermal energy

Summary of contributions to the inner energy U:
Electronic energy                ...   -246.77791559 Eh
Zero point energy                ...      0.00115082 Eh       0.72 kcal/mol
Thermal vibrational correction   ...      0.00022034 Eh       0.14 kcal/mol
Thermal rotational correction    ...      0.00094418 Eh       0.59 kcal/mol
Thermal translational correction ...      0.00141627 Eh       0.89 kcal/mol
-----------------------------------------------------------------------
Total thermal energy                   -246.77418398 Eh

Summary of corrections to the electronic energy:
(perhaps to be used in another calculation)
Total thermal correction                  0.00258079 Eh       1.62 kcal/mol
Non-thermal (ZPE) correction              0.00115082 Eh       0.72 kcal/mol
-----------------------------------------------------------------------
Total correction                          0.00373161 Eh       2.34 kcal/mol

--------
ENTHALPY
--------

The enthalpy is H = U + kB*T
                kB is Boltzmann's constant
Total free energy                 ...   -246.77418398 Eh
Thermal Enthalpy correction       ...      0.00094421 Eh       0.59 kcal/mol
-----------------------------------------------------------------------
Total Enthalpy                    ...   -246.77323977 Eh

Note: Rotational entropy computed according to Herzberg
Infrared and Raman Spectra, Chapter V,1, Van Nostrand Reinhold, 1945
Point Group:  Cinfv, Symmetry Number:   1
Rotational constants in cm-1:     0.000000     0.261580     0.261580

Vibrational entropy computed according to the QRRHO of S. Grimme
Chem.Eur.J. 2012 18 9955

-------
ENTROPY
-------

The entropy contributions are T*S = T*(S(el)+S(vib)+S(rot)+S(trans))
     S(el)   - electronic entropy
     S(vib)  - vibrational entropy
     S(rot)  - rotational entropy
     S(trans)- translational entropy
The entropies will be listed as mutliplied by the temperature to get
units of energy

Electronic entropy                ...      0.00000000 Eh      0.00 kcal/mol
Vibrational entropy               ...      0.00030708 Eh      0.19 kcal/mol
Rotational entropy                ...      0.00724642 Eh      4.55 kcal/mol
Translational entropy             ...      0.01920828 Eh     12.05 kcal/mol
-----------------------------------------------------------------------
Final entropy term                ...      0.02676179 Eh     16.79 kcal/mol

In case the symmetry of your molecule has not been determined correctly
or in case you have a reason to use a different symmetry number we print
out the resulting rotational entropy values for sn=1,12 :
 --------------------------------------------------------
|  sn= 1 | S(rot)=             -inf Eh      -inf kcal/mol|
|  sn= 2 | S(rot)=             -inf Eh      -inf kcal/mol|
|  sn= 3 | S(rot)=             -inf Eh      -inf kcal/mol|
|  sn= 4 | S(rot)=             -inf Eh      -inf kcal/mol|
|  sn= 5 | S(rot)=             -inf Eh      -inf kcal/mol|
|  sn= 6 | S(rot)=             -inf Eh      -inf kcal/mol|
|  sn= 7 | S(rot)=             -inf Eh      -inf kcal/mol|
|  sn= 8 | S(rot)=             -inf Eh      -inf kcal/mol|
|  sn= 9 | S(rot)=             -inf Eh      -inf kcal/mol|
|  sn=10 | S(rot)=             -inf Eh      -inf kcal/mol|
|  sn=11 | S(rot)=             -inf Eh      -inf kcal/mol|
|  sn=12 | S(rot)=             -inf Eh      -inf kcal/mol|
 --------------------------------------------------------

-------------------
GIBBS FREE ENERGY
-------------------

The Gibbs free energy is G = H - T*S

Total enthalpy                    ...   -246.77323977 Eh
Total entropy correction          ...     -0.02676179 Eh    -16.79 kcal/mol
-----------------------------------------------------------------------
Final Gibbs free energy         ...   -246.80000156 Eh

For completeness - the Gibbs free energy minus the electronic energy
G-E(el)                           ...     -0.02208597 Eh    -13.86 kcal/mol

                             ****ORCA TERMINATED NORMALLY****
TOTAL RUN TIME: 0 days 0 hours 5 minutes 8 seconds 288 msec
