                         Program Version 4.2.0 -  RELEASE  -
|  1> #
|  2> # Ag03N0_D3H wB97M-V/Def2-TZVPPD
|  3> #
|  4> ! wb97m-v def2-tzvppd def2/jk grid4 nofinalgrid opt xyzfile numfreq numgrad
|  5>
|  6> *xyz 0 2
|  7> Ag       0.000000    1.533951   -0.000000
|  8> Ag       1.328441   -0.766976    0.000000
|  9> Ag      -1.328441   -0.766976   -0.000000
| 10> *
| 11>
| 12> %maxcore 5000
| 13>
| 14> %pal
| 15> nprocs = 24
| 16> end
| 17>
| 18>
| 19>                          ****END OF INPUT****
 Total Charge           Charge          ....    0
 Multiplicity           Mult            ....    2
 Number of Electrons    NEL             ....   57
FINAL SINGLE POINT ENERGY      -440.778547486299
FINAL SINGLE POINT ENERGY      -440.778984666952
FINAL SINGLE POINT ENERGY      -440.781818374978
FINAL SINGLE POINT ENERGY      -440.782066799683
FINAL SINGLE POINT ENERGY      -440.782089812622
FINAL SINGLE POINT ENERGY      -440.782100278468
FINAL SINGLE POINT ENERGY      -440.782119542834
FINAL SINGLE POINT ENERGY      -440.782129087405
FINAL SINGLE POINT ENERGY      -440.782131490655
                    ***********************HURRAY********************

CARTESIAN COORDINATES (ANGSTROEM)
---------------------------------
  Ag     0.000003    1.674800    0.000000
  Ag     1.295419   -0.837398    0.000000
  Ag    -1.295422   -0.837403    0.000000

 Multiplicity           Mult            ....    2
 Number of Electrons    NEL             ....   57
 Basis Dimension        Dim             ....  168

ORBITAL ENERGIES
----------------
                 SPIN UP ORBITALS
  NO   OCC          E(Eh)            E(eV)
   0   1.0000      -3.875478      -105.4571
   1   1.0000      -3.875055      -105.4456
   2   1.0000      -3.851414      -104.8023
   3   1.0000      -2.466559       -67.1185
   4   1.0000      -2.461384       -66.9777
   5   1.0000      -2.461204       -66.9728
   6   1.0000      -2.460654       -66.9578
   7   1.0000      -2.460482       -66.9531
   8   1.0000      -2.460230       -66.9463
   9   1.0000      -2.438223       -66.3474
  10   1.0000      -2.437685       -66.3328
  11   1.0000      -2.435969       -66.2861
  12   1.0000      -0.483179       -13.1480
  13   1.0000      -0.475336       -12.9346
  14   1.0000      -0.465550       -12.6683
  15   1.0000      -0.453649       -12.3444
  16   1.0000      -0.449777       -12.2391
  17   1.0000      -0.449268       -12.2252
  18   1.0000      -0.440254       -11.9799
  19   1.0000      -0.428100       -11.6492
  20   1.0000      -0.424814       -11.5598
  21   1.0000      -0.422497       -11.4967
  22   1.0000      -0.415990       -11.3197
  23   1.0000      -0.414593       -11.2817
  24   1.0000      -0.412122       -11.2144
  25   1.0000      -0.411863       -11.2074
  26   1.0000      -0.399666       -10.8755
  27   1.0000      -0.326796        -8.8926
  28   1.0000      -0.200793        -5.4639
  29   0.0000      -0.042714        -1.1623
  30   0.0000       0.010944         0.2978
  31   0.0000       0.025491         0.6936
  32   0.0000       0.039901         1.0858
  33   0.0000       0.049483         1.3465

                 SPIN DOWN ORBITALS
  NO   OCC          E(Eh)            E(eV)
   0   1.0000      -3.874847      -105.4399
   1   1.0000      -3.874424      -105.4284
   2   1.0000      -3.849642      -104.7541
   3   1.0000      -2.465790       -67.0976
   4   1.0000      -2.460769       -66.9609
   5   1.0000      -2.460363       -66.9499
   6   1.0000      -2.460227       -66.9462
   7   1.0000      -2.459833       -66.9354
   8   1.0000      -2.459606       -66.9293
   9   1.0000      -2.436537       -66.3016
  10   1.0000      -2.435830       -66.2823
  11   1.0000      -2.434220       -66.2385
  12   1.0000      -0.481991       -13.1156
  13   1.0000      -0.472581       -12.8596
  14   1.0000      -0.464452       -12.6384
  15   1.0000      -0.450682       -12.2637
  16   1.0000      -0.447575       -12.1791
  17   1.0000      -0.447192       -12.1687
  18   1.0000      -0.438852       -11.9418
  19   1.0000      -0.426677       -11.6105
  20   1.0000      -0.424346       -11.5470
  21   1.0000      -0.421639       -11.4734
  22   1.0000      -0.412395       -11.2218
  23   1.0000      -0.411322       -11.1926
  24   1.0000      -0.408579       -11.1180
  25   1.0000      -0.407705       -11.0942
  26   1.0000      -0.395745       -10.7688
  27   1.0000      -0.307741        -8.3741
  28   0.0000      -0.072319        -1.9679
  29   0.0000      -0.054027        -1.4702
  30   0.0000      -0.021569        -0.5869
  31   0.0000      -0.004781        -0.1301
  32   0.0000       0.009643         0.2624

MULLIKEN ATOMIC CHARGES AND SPIN POPULATIONS
--------------------------------------------
   0 Ag:   -0.173821    0.557459
   1 Ag:    0.086914    0.221265
   2 Ag:    0.086907    0.221276
Sum of atomic charges         :   -0.0000000

LOEWDIN ATOMIC CHARGES AND SPIN POPULATIONS
-------------------------------------------
   0 Ag:   -0.080136    0.495118
   1 Ag:    0.040069    0.252439
   2 Ag:    0.040068    0.252443

  Mayer bond orders larger than 0.100000
B(  0-Ag,  1-Ag) :   0.4341 B(  0-Ag,  2-Ag) :   0.4341 B(  1-Ag,  2-Ag) :   0.7538

FINAL SINGLE POINT ENERGY      -440.782131685873

DIPOLE MOMENT
-------------
                                X             Y             Z
Electronic contribution:      0.00000      -0.50312       0.00000
Nuclear contribution   :      0.00000       0.00000       0.00000
                        -----------------------------------------
Total Dipole Moment    :      0.00000      -0.50312       0.00000
                        -----------------------------------------
Magnitude (a.u.)       :      0.50312
Magnitude (Debye)      :      1.27883

VIBRATIONAL FREQUENCIES
-----------------------

Scaling factor for frequencies =  1.000000000 (already applied!)

   0:         0.00 cm**-1
   1:         0.00 cm**-1
   2:         0.00 cm**-1
   3:         0.00 cm**-1
   4:         0.00 cm**-1
   5:         0.00 cm**-1
   6:       -85.49 cm**-1 ***imaginary mode***
   7:       109.29 cm**-1
   8:       181.59 cm**-1

IR SPECTRUM
-----------

 Mode    freq (cm**-1)   T**2         TX         TY         TZ
-------------------------------------------------------------------
   7:       109.29    0.075677  (  0.001923  -0.275088  -0.000007)
   8:       181.59    1.030092  ( -0.000177  -1.014935  -0.000018)

--------------------------
THERMOCHEMISTRY AT 298.15K
--------------------------

Temperature         ... 298.15 K
Pressure            ... 1.00 atm
Total Mass          ... 323.61 AMU

Throughout the following assumptions are being made:
  (1) The electronic state is orbitally nondegenerate
      but the spin degeneracy is treated
  (2) There are no thermally accessible electronically excited states
  (3) Hindered rotations indicated by low frequency modes are not
      treated as such but are treated as vibrations and this may
      cause some error
  (4) All equations used are the standard statistical mechanics
      equations for an ideal gas
  (5) All vibrations are strictly harmonic

freq.     109.29  E(vib)   ...       0.45
freq.     181.59  E(vib)   ...       0.37

------------
INNER ENERGY
------------

The inner energy is: U= E(el) + E(ZPE) + E(vib) + E(rot) + E(trans)
    E(el)   - is the total energy from the electronic structure calculation
              = E(kin-el) + E(nuc-el) + E(el-el) + E(nuc-nuc)
    E(ZPE)  - the the zero temperature vibrational energy from the frequency calculation
    E(vib)  - the the finite temperature correction to E(ZPE) due to population
              of excited vibrational states
    E(rot)  - is the rotational thermal energy
    E(trans)- is the translational thermal energy

Summary of contributions to the inner energy U:
Electronic energy                ...   -440.78213169 Eh
Zero point energy                ...      0.00066267 Eh       0.42 kcal/mol
Thermal vibrational correction   ...      0.00130719 Eh       0.82 kcal/mol
Thermal rotational correction    ...      0.00141627 Eh       0.89 kcal/mol
Thermal translational correction ...      0.00141627 Eh       0.89 kcal/mol
-----------------------------------------------------------------------
Total thermal energy                   -440.77732929 Eh

Summary of corrections to the electronic energy:
(perhaps to be used in another calculation)
Total thermal correction                  0.00413973 Eh       2.60 kcal/mol
Non-thermal (ZPE) correction              0.00066267 Eh       0.42 kcal/mol
-----------------------------------------------------------------------
Total correction                          0.00480240 Eh       3.01 kcal/mol

--------
ENTHALPY
--------

The enthalpy is H = U + kB*T
                kB is Boltzmann's constant
Total free energy                 ...   -440.77732929 Eh
Thermal Enthalpy correction       ...      0.00094421 Eh       0.59 kcal/mol
-----------------------------------------------------------------------
Total Enthalpy                    ...   -440.77638508 Eh

Note: Rotational entropy computed according to Herzberg
Infrared and Raman Spectra, Chapter V,1, Van Nostrand Reinhold, 1945
Point Group:  Cs, Symmetry Number:   1
Rotational constants in cm-1:     0.046563     0.037143     0.020662

Vibrational entropy computed according to the QRRHO of S. Grimme
Chem.Eur.J. 2012 18 9955

-------
ENTROPY
-------

The entropy contributions are T*S = T*(S(el)+S(vib)+S(rot)+S(trans))
     S(el)   - electronic entropy
     S(vib)  - vibrational entropy
     S(rot)  - rotational entropy
     S(trans)- translational entropy
The entropies will be listed as mutliplied by the temperature to get
units of energy

Electronic entropy                ...      0.00065446 Eh      0.41 kcal/mol
Vibrational entropy               ...      0.00255495 Eh      1.60 kcal/mol
Rotational entropy                ...      0.01434473 Eh      9.00 kcal/mol
Translational entropy             ...      0.02053447 Eh     12.89 kcal/mol
-----------------------------------------------------------------------
Final entropy term                ...      0.03808861 Eh     23.90 kcal/mol

In case the symmetry of your molecule has not been determined correctly
or in case you have a reason to use a different symmetry number we print
out the resulting rotational entropy values for sn=1,12 :
 --------------------------------------------------------
|  sn= 1 | S(rot)=       0.01434473 Eh      9.00 kcal/mol|
|  sn= 2 | S(rot)=       0.01369027 Eh      8.59 kcal/mol|
|  sn= 3 | S(rot)=       0.01330744 Eh      8.35 kcal/mol|
|  sn= 4 | S(rot)=       0.01303582 Eh      8.18 kcal/mol|
|  sn= 5 | S(rot)=       0.01282513 Eh      8.05 kcal/mol|
|  sn= 6 | S(rot)=       0.01265299 Eh      7.94 kcal/mol|
|  sn= 7 | S(rot)=       0.01250744 Eh      7.85 kcal/mol|
|  sn= 8 | S(rot)=       0.01238136 Eh      7.77 kcal/mol|
|  sn= 9 | S(rot)=       0.01227015 Eh      7.70 kcal/mol|
|  sn=10 | S(rot)=       0.01217067 Eh      7.64 kcal/mol|
|  sn=11 | S(rot)=       0.01208068 Eh      7.58 kcal/mol|
|  sn=12 | S(rot)=       0.01199853 Eh      7.53 kcal/mol|
 --------------------------------------------------------

-------------------
GIBBS FREE ENERGY
-------------------

The Gibbs free energy is G = H - T*S

Total enthalpy                    ...   -440.77638508 Eh
Total entropy correction          ...     -0.03808861 Eh    -23.90 kcal/mol
-----------------------------------------------------------------------
Final Gibbs free energy         ...   -440.81447369 Eh

For completeness - the Gibbs free energy minus the electronic energy
G-E(el)                           ...     -0.03234200 Eh    -20.29 kcal/mol

                             ****ORCA TERMINATED NORMALLY****
TOTAL RUN TIME: 0 days 1 hours 11 minutes 3 seconds 427 msec
