                         Program Version 4.2.0 -  RELEASE  -
|  1> #
|  2> # Ag03C1_D3H wB97M-V/Def2-TZVPPD
|  3> #
|  4> ! wb97m-v def2-tzvppd def2/jk grid4 nofinalgrid opt xyzfile numfreq numgrad
|  5>
|  6> *xyz 1 1
|  7> Ag       0.000000    1.529877    0.000000
|  8> Ag       1.324912   -0.764938    0.000000
|  9> Ag      -1.324912   -0.764938    0.000000
| 10> *
| 11>
| 12> %maxcore 5000
| 13>
| 14> %pal
| 15> nprocs = 24
| 16> end
| 17>
| 18>
| 19>                          ****END OF INPUT****
 Total Charge           Charge          ....    1
 Multiplicity           Mult            ....    1
 Number of Electrons    NEL             ....   56
FINAL SINGLE POINT ENERGY      -440.592687516484
FINAL SINGLE POINT ENERGY      -440.592805252566
FINAL SINGLE POINT ENERGY      -440.593480479529
FINAL SINGLE POINT ENERGY      -440.593488166645
                    ***********************HURRAY********************

CARTESIAN COORDINATES (ANGSTROEM)
---------------------------------
  Ag     0.000001    1.564041    0.000000
  Ag     1.352930   -0.782019    0.000000
  Ag    -1.352931   -0.782021    0.000000

 Multiplicity           Mult            ....    1
 Number of Electrons    NEL             ....   56
 Basis Dimension        Dim             ....  168

ORBITAL ENERGIES
----------------

  NO   OCC          E(Eh)            E(eV)
   0   2.0000      -4.056457      -110.3818
   1   2.0000      -4.056128      -110.3728
   2   2.0000      -4.056116      -110.3725
   3   2.0000      -2.646808       -72.0233
   4   2.0000      -2.644878       -71.9708
   5   2.0000      -2.644867       -71.9705
   6   2.0000      -2.642572       -71.9081
   7   2.0000      -2.642153       -71.8966
   8   2.0000      -2.642148       -71.8965
   9   2.0000      -2.641520       -71.8794
  10   2.0000      -2.641163       -71.8697
  11   2.0000      -2.641144       -71.8692
  12   2.0000      -0.668493       -18.1906
  13   2.0000      -0.653631       -17.7862
  14   2.0000      -0.653504       -17.7827
  15   2.0000      -0.648529       -17.6474
  16   2.0000      -0.635241       -17.2858
  17   2.0000      -0.632260       -17.2047
  18   2.0000      -0.632215       -17.2034
  19   2.0000      -0.613988       -16.7075
  20   2.0000      -0.613903       -16.7051
  21   2.0000      -0.610988       -16.6258
  22   2.0000      -0.607251       -16.5242
  23   2.0000      -0.607225       -16.5234
  24   2.0000      -0.606334       -16.4992
  25   2.0000      -0.606245       -16.4968
  26   2.0000      -0.587487       -15.9863
  27   2.0000      -0.491486       -13.3740
  28   0.0000      -0.198745        -5.4081
  29   0.0000      -0.198650        -5.4055
  30   0.0000      -0.142228        -3.8702
  31   0.0000      -0.116698        -3.1755
  32   0.0000      -0.098385        -2.6772

MULLIKEN ATOMIC CHARGES
-----------------------
   0 Ag:    0.333632
   1 Ag:    0.333183
   2 Ag:    0.333185
Sum of atomic charges:    1.0000000

LOEWDIN ATOMIC CHARGES
----------------------
   0 Ag:    0.333591
   1 Ag:    0.333204
   2 Ag:    0.333205

  Mayer bond orders larger than 0.100000
B(  0-Ag,  1-Ag) :   0.5148 B(  0-Ag,  2-Ag) :   0.5148 B(  1-Ag,  2-Ag) :   0.5154

FINAL SINGLE POINT ENERGY      -440.593488221788

DIPOLE MOMENT
-------------
                                X             Y             Z
Electronic contribution:     -0.00000       0.00119      -0.00000
Nuclear contribution   :      0.00000      -0.00000       0.00000
                        -----------------------------------------
Total Dipole Moment    :     -0.00000       0.00119      -0.00000
                        -----------------------------------------
Magnitude (a.u.)       :      0.00119
Magnitude (Debye)      :      0.00303

VIBRATIONAL FREQUENCIES
-----------------------

Scaling factor for frequencies =  1.000000000 (already applied!)

   0:         0.00 cm**-1
   1:         0.00 cm**-1
   2:         0.00 cm**-1
   3:         0.00 cm**-1
   4:         0.00 cm**-1
   5:         0.00 cm**-1
   6:       120.70 cm**-1
   7:       123.43 cm**-1
   8:       176.27 cm**-1

IR SPECTRUM
-----------

 Mode    freq (cm**-1)   T**2         TX         TY         TZ
-------------------------------------------------------------------
   6:       120.70    1.306745  ( -1.138578   0.101908  -0.000036)
   7:       123.43    1.436322  (  0.097109   1.194526   0.000016)
   8:       176.27    0.000506  (  0.002876   0.022313  -0.000005)

--------------------------
THERMOCHEMISTRY AT 298.15K
--------------------------

Temperature         ... 298.15 K
Pressure            ... 1.00 atm
Total Mass          ... 323.61 AMU

Throughout the following assumptions are being made:
  (1) The electronic state is orbitally nondegenerate
  (2) There are no thermally accessible electronically excited states
  (3) Hindered rotations indicated by low frequency modes are not
      treated as such but are treated as vibrations and this may
      cause some error
  (4) All equations used are the standard statistical mechanics
      equations for an ideal gas
  (5) All vibrations are strictly harmonic

freq.     120.70  E(vib)   ...       0.44
freq.     123.43  E(vib)   ...       0.43
freq.     176.27  E(vib)   ...       0.38

------------
INNER ENERGY
------------

The inner energy is: U= E(el) + E(ZPE) + E(vib) + E(rot) + E(trans)
    E(el)   - is the total energy from the electronic structure calculation
              = E(kin-el) + E(nuc-el) + E(el-el) + E(nuc-nuc)
    E(ZPE)  - the the zero temperature vibrational energy from the frequency calculation
    E(vib)  - the the finite temperature correction to E(ZPE) due to population
              of excited vibrational states
    E(rot)  - is the rotational thermal energy
    E(trans)- is the translational thermal energy

Summary of contributions to the inner energy U:
Electronic energy                ...   -440.59348822 Eh
Zero point energy                ...      0.00095773 Eh       0.60 kcal/mol
Thermal vibrational correction   ...      0.00198544 Eh       1.25 kcal/mol
Thermal rotational correction    ...      0.00141627 Eh       0.89 kcal/mol
Thermal translational correction ...      0.00141627 Eh       0.89 kcal/mol
-----------------------------------------------------------------------
Total thermal energy                   -440.58771251 Eh

Summary of corrections to the electronic energy:
(perhaps to be used in another calculation)
Total thermal correction                  0.00481799 Eh       3.02 kcal/mol
Non-thermal (ZPE) correction              0.00095773 Eh       0.60 kcal/mol
-----------------------------------------------------------------------
Total correction                          0.00577572 Eh       3.62 kcal/mol

--------
ENTHALPY
--------

The enthalpy is H = U + kB*T
                kB is Boltzmann's constant
Total free energy                 ...   -440.58771251 Eh
Thermal Enthalpy correction       ...      0.00094421 Eh       0.59 kcal/mol
-----------------------------------------------------------------------
Total Enthalpy                    ...   -440.58676830 Eh

Note: Rotational entropy computed according to Herzberg
Infrared and Raman Spectra, Chapter V,1, Van Nostrand Reinhold, 1945
Point Group:  Cs, Symmetry Number:   1
Rotational constants in cm-1:     0.042689     0.042590     0.021320

Vibrational entropy computed according to the QRRHO of S. Grimme
Chem.Eur.J. 2012 18 9955

-------
ENTROPY
-------

The entropy contributions are T*S = T*(S(el)+S(vib)+S(rot)+S(trans))
     S(el)   - electronic entropy
     S(vib)  - vibrational entropy
     S(rot)  - rotational entropy
     S(trans)- translational entropy
The entropies will be listed as mutliplied by the temperature to get
units of energy

Electronic entropy                ...      0.00000000 Eh      0.00 kcal/mol
Vibrational entropy               ...      0.00391532 Eh      2.46 kcal/mol
Rotational entropy                ...      0.01430634 Eh      8.98 kcal/mol
Translational entropy             ...      0.02053447 Eh     12.89 kcal/mol
-----------------------------------------------------------------------
Final entropy term                ...      0.03875612 Eh     24.32 kcal/mol

In case the symmetry of your molecule has not been determined correctly
or in case you have a reason to use a different symmetry number we print
out the resulting rotational entropy values for sn=1,12 :
 --------------------------------------------------------
|  sn= 1 | S(rot)=       0.01430634 Eh      8.98 kcal/mol|
|  sn= 2 | S(rot)=       0.01365188 Eh      8.57 kcal/mol|
|  sn= 3 | S(rot)=       0.01326905 Eh      8.33 kcal/mol|
|  sn= 4 | S(rot)=       0.01299743 Eh      8.16 kcal/mol|
|  sn= 5 | S(rot)=       0.01278674 Eh      8.02 kcal/mol|
|  sn= 6 | S(rot)=       0.01261459 Eh      7.92 kcal/mol|
|  sn= 7 | S(rot)=       0.01246905 Eh      7.82 kcal/mol|
|  sn= 8 | S(rot)=       0.01234297 Eh      7.75 kcal/mol|
|  sn= 9 | S(rot)=       0.01223176 Eh      7.68 kcal/mol|
|  sn=10 | S(rot)=       0.01213228 Eh      7.61 kcal/mol|
|  sn=11 | S(rot)=       0.01204229 Eh      7.56 kcal/mol|
|  sn=12 | S(rot)=       0.01196014 Eh      7.51 kcal/mol|
 --------------------------------------------------------

-------------------
GIBBS FREE ENERGY
-------------------

The Gibbs free energy is G = H - T*S

Total enthalpy                    ...   -440.58676830 Eh
Total entropy correction          ...     -0.03875612 Eh    -24.32 kcal/mol
-----------------------------------------------------------------------
Final Gibbs free energy         ...   -440.62552442 Eh

For completeness - the Gibbs free energy minus the electronic energy
G-E(el)                           ...     -0.03203620 Eh    -20.10 kcal/mol

                             ****ORCA TERMINATED NORMALLY****
TOTAL RUN TIME: 0 days 0 hours 35 minutes 15 seconds 749 msec
