                         Program Version 4.2.0 -  RELEASE  -
|  1> #
|  2> # Au01N0_F wB97M-V/Def2-TZVPPD
|  3> #
|  4> ! wb97m-v def2-tzvppd def2/jk grid4 nofinalgrid opt xyzfile numfreq numgrad
|  5>
|  6> *xyz 0 1
|  7> Au       0.000000    0.000000    0.196853
|  8> F        0.000000    0.000000   -1.727931
|  9> *
| 10>
| 11> %maxcore 5000
| 12>
| 13> %pal
| 14> nprocs = 24
| 15> end
| 16>
| 17>
| 18>                          ****END OF INPUT****
 Total Charge           Charge          ....    0
 Multiplicity           Mult            ....    1
 Number of Electrons    NEL             ....   28
FINAL SINGLE POINT ENERGY      -235.476009430789
FINAL SINGLE POINT ENERGY      -235.476064895327
FINAL SINGLE POINT ENERGY      -235.476305971252
FINAL SINGLE POINT ENERGY      -235.476307323188
                    ***********************HURRAY********************

CARTESIAN COORDINATES (ANGSTROEM)
---------------------------------
  Au     0.000000    0.000000    0.211489
  F      0.000000    0.000000   -1.742567

 Multiplicity           Mult            ....    1
 Number of Electrons    NEL             ....   28
 Basis Dimension        Dim             ....   99

ORBITAL ENERGIES
----------------

  NO   OCC          E(Eh)            E(eV)
   0   2.0000     -24.830797      -675.6803
   1   2.0000      -4.318053      -117.5002
   2   2.0000      -2.501169       -68.0603
   3   2.0000      -2.486451       -67.6598
   4   2.0000      -2.486451       -67.6598
   5   2.0000      -1.214410       -33.0458
   6   2.0000      -0.538271       -14.6471
   7   2.0000      -0.501070       -13.6348
   8   2.0000      -0.501070       -13.6348
   9   2.0000      -0.443247       -12.0614
  10   2.0000      -0.443246       -12.0613
  11   2.0000      -0.410497       -11.1702
  12   2.0000      -0.410497       -11.1702
  13   2.0000      -0.395027       -10.7492
  14   0.0000      -0.076171        -2.0727
  15   0.0000       0.035763         0.9731
  16   0.0000       0.035763         0.9731
  17   0.0000       0.064046         1.7428
  18   0.0000       0.121977         3.3192

MULLIKEN ATOMIC CHARGES
-----------------------
   0 Au:    0.514344
   1 F :   -0.514344
Sum of atomic charges:   -0.0000000

LOEWDIN ATOMIC CHARGES
----------------------
   0 Au:    0.630328
   1 F :   -0.630328

  Mayer bond orders larger than 0.100000
B(  0-Au,  1-F ) :   0.7630

FINAL SINGLE POINT ENERGY      -235.476307336026

DIPOLE MOMENT
-------------
                                X             Y             Z
Electronic contribution:      0.00000      -0.00000      26.00399
Nuclear contribution   :      0.00000       0.00000     -24.13832
                        -----------------------------------------
Total Dipole Moment    :      0.00000      -0.00000       1.86568
                        -----------------------------------------
Magnitude (a.u.)       :      1.86568
Magnitude (Debye)      :      4.74218

VIBRATIONAL FREQUENCIES
-----------------------

Scaling factor for frequencies =  1.000000000 (already applied!)

   0:         0.00 cm**-1
   1:         0.00 cm**-1
   2:         0.00 cm**-1
   3:         0.00 cm**-1
   4:         0.00 cm**-1
   5:       532.16 cm**-1

IR SPECTRUM
-----------

 Mode    freq (cm**-1)   T**2         TX         TY         TZ
-------------------------------------------------------------------
   5:       532.16   55.668008  (  0.000002   0.000001   7.461100)

--------------------------
THERMOCHEMISTRY AT 298.15K
--------------------------

Temperature         ... 298.15 K
Pressure            ... 1.00 atm
Total Mass          ... 215.96 AMU
The molecule is recognized as being linear

Throughout the following assumptions are being made:
  (1) The electronic state is orbitally nondegenerate
  (2) There are no thermally accessible electronically excited states
  (3) Hindered rotations indicated by low frequency modes are not
      treated as such but are treated as vibrations and this may
      cause some error
  (4) All equations used are the standard statistical mechanics
      equations for an ideal gas
  (5) All vibrations are strictly harmonic

freq.     532.16  E(vib)   ...       0.13

------------
INNER ENERGY
------------

The inner energy is: U= E(el) + E(ZPE) + E(vib) + E(rot) + E(trans)
    E(el)   - is the total energy from the electronic structure calculation
              = E(kin-el) + E(nuc-el) + E(el-el) + E(nuc-nuc)
    E(ZPE)  - the the zero temperature vibrational energy from the frequency calculation
    E(vib)  - the the finite temperature correction to E(ZPE) due to population
              of excited vibrational states
    E(rot)  - is the rotational thermal energy
    E(trans)- is the translational thermal energy

Summary of contributions to the inner energy U:
Electronic energy                ...   -235.47630734 Eh
Zero point energy                ...      0.00121235 Eh       0.76 kcal/mol
Thermal vibrational correction   ...      0.00020140 Eh       0.13 kcal/mol
Thermal rotational correction    ...      0.00094418 Eh       0.59 kcal/mol
Thermal translational correction ...      0.00141627 Eh       0.89 kcal/mol
-----------------------------------------------------------------------
Total thermal energy                   -235.47253314 Eh

Summary of corrections to the electronic energy:
(perhaps to be used in another calculation)
Total thermal correction                  0.00256185 Eh       1.61 kcal/mol
Non-thermal (ZPE) correction              0.00121235 Eh       0.76 kcal/mol
-----------------------------------------------------------------------
Total correction                          0.00377420 Eh       2.37 kcal/mol

--------
ENTHALPY
--------

The enthalpy is H = U + kB*T
                kB is Boltzmann's constant
Total free energy                 ...   -235.47253314 Eh
Thermal Enthalpy correction       ...      0.00094421 Eh       0.59 kcal/mol
-----------------------------------------------------------------------
Total Enthalpy                    ...   -235.47158893 Eh

Note: Rotational entropy computed according to Herzberg
Infrared and Raman Spectra, Chapter V,1, Van Nostrand Reinhold, 1945
Point Group:  Cinfv, Symmetry Number:   1
Rotational constants in cm-1:     0.000000     0.254804     0.254804

Vibrational entropy computed according to the QRRHO of S. Grimme
Chem.Eur.J. 2012 18 9955

-------
ENTROPY
-------

The entropy contributions are T*S = T*(S(el)+S(vib)+S(rot)+S(trans))
     S(el)   - electronic entropy
     S(vib)  - vibrational entropy
     S(rot)  - rotational entropy
     S(trans)- translational entropy
The entropies will be listed as mutliplied by the temperature to get
units of energy

Electronic entropy                ...      0.00000000 Eh      0.00 kcal/mol
Vibrational entropy               ...      0.00027709 Eh      0.17 kcal/mol
Rotational entropy                ...      0.00727121 Eh      4.56 kcal/mol
Translational entropy             ...      0.01996169 Eh     12.53 kcal/mol
-----------------------------------------------------------------------
Final entropy term                ...      0.02750999 Eh     17.26 kcal/mol

In case the symmetry of your molecule has not been determined correctly
or in case you have a reason to use a different symmetry number we print
out the resulting rotational entropy values for sn=1,12 :
 --------------------------------------------------------
|  sn= 1 | S(rot)=             -inf Eh      -inf kcal/mol|
|  sn= 2 | S(rot)=             -inf Eh      -inf kcal/mol|
|  sn= 3 | S(rot)=             -inf Eh      -inf kcal/mol|
|  sn= 4 | S(rot)=             -inf Eh      -inf kcal/mol|
|  sn= 5 | S(rot)=             -inf Eh      -inf kcal/mol|
|  sn= 6 | S(rot)=             -inf Eh      -inf kcal/mol|
|  sn= 7 | S(rot)=             -inf Eh      -inf kcal/mol|
|  sn= 8 | S(rot)=             -inf Eh      -inf kcal/mol|
|  sn= 9 | S(rot)=             -inf Eh      -inf kcal/mol|
|  sn=10 | S(rot)=             -inf Eh      -inf kcal/mol|
|  sn=11 | S(rot)=             -inf Eh      -inf kcal/mol|
|  sn=12 | S(rot)=             -inf Eh      -inf kcal/mol|
 --------------------------------------------------------

-------------------
GIBBS FREE ENERGY
-------------------

The Gibbs free energy is G = H - T*S

Total enthalpy                    ...   -235.47158893 Eh
Total entropy correction          ...     -0.02750999 Eh    -17.26 kcal/mol
-----------------------------------------------------------------------
Final Gibbs free energy         ...   -235.49909893 Eh

For completeness - the Gibbs free energy minus the electronic energy
G-E(el)                           ...     -0.02279158 Eh    -14.30 kcal/mol

                             ****ORCA TERMINATED NORMALLY****
TOTAL RUN TIME: 0 days 0 hours 6 minutes 22 seconds 981 msec
