                         Program Version 4.2.0 -  RELEASE  -
|  1> #
|  2> # Au03N0_D3H wB97M-V/Def2-TZVPPD
|  3> #
|  4> ! wb97m-v def2-tzvppd def2/jk grid4 nofinalgrid opt xyzfile numfreq numgrad
|  5>
|  6> *xyz 0 2
|  7> Au       0.000000    1.515176   -0.000000
|  8> Au       1.312181   -0.757588    0.000000
|  9> Au      -1.312181   -0.757588   -0.000000
| 10> *
| 11>
| 12> %maxcore 5000
| 13>
| 14> %pal
| 15> nprocs = 24
| 16> end
| 17>
| 18>
| 19>                          ****END OF INPUT****
 Total Charge           Charge          ....    0
 Multiplicity           Mult            ....    2
 Number of Electrons    NEL             ....   57
FINAL SINGLE POINT ENERGY      -406.957258684415
FINAL SINGLE POINT ENERGY      -406.960804161750
FINAL SINGLE POINT ENERGY      -406.959570518689
FINAL SINGLE POINT ENERGY      -406.961115025618
FINAL SINGLE POINT ENERGY      -406.961120349039
                    ***********************HURRAY********************

CARTESIAN COORDINATES (ANGSTROEM)
---------------------------------
  Au     0.000017    1.635915    0.000000
  Au     1.282738   -0.817941    0.000000
  Au    -1.282755   -0.817974    0.000000

 Multiplicity           Mult            ....    2
 Number of Electrons    NEL             ....   57
 Basis Dimension        Dim             ....  177

ORBITAL ENERGIES
----------------
                 SPIN UP ORBITALS
  NO   OCC          E(Eh)            E(eV)
   0   1.0000      -4.288199      -116.6878
   1   1.0000      -4.287799      -116.6769
   2   1.0000      -4.262025      -115.9756
   3   1.0000      -2.470383       -67.2225
   4   1.0000      -2.461923       -66.9923
   5   1.0000      -2.460301       -66.9482
   6   1.0000      -2.458819       -66.9079
   7   1.0000      -2.457673       -66.8767
   8   1.0000      -2.456991       -66.8581
   9   1.0000      -2.437688       -66.3329
  10   1.0000      -2.433875       -66.2291
  11   1.0000      -2.430432       -66.1354
  12   1.0000      -0.496340       -13.5061
  13   1.0000      -0.476606       -12.9691
  14   1.0000      -0.460278       -12.5248
  15   1.0000      -0.448950       -12.2166
  16   1.0000      -0.437820       -11.9137
  17   1.0000      -0.434478       -11.8227
  18   1.0000      -0.420973       -11.4553
  19   1.0000      -0.401714       -10.9312
  20   1.0000      -0.396864       -10.7992
  21   1.0000      -0.395501       -10.7621
  22   1.0000      -0.393224       -10.7002
  23   1.0000      -0.389475       -10.5982
  24   1.0000      -0.386229       -10.5098
  25   1.0000      -0.384583       -10.4650
  26   1.0000      -0.370520       -10.0823
  27   1.0000      -0.362436        -9.8624
  28   1.0000      -0.243598        -6.6286
  29   0.0000      -0.071769        -1.9529
  30   0.0000       0.009520         0.2591
  31   0.0000       0.024033         0.6540
  32   0.0000       0.040627         1.1055
  33   0.0000       0.049721         1.3530

                 SPIN DOWN ORBITALS
  NO   OCC          E(Eh)            E(eV)
   0   1.0000      -4.287330      -116.6642
   1   1.0000      -4.286934      -116.6534
   2   1.0000      -4.259019      -115.8938
   3   1.0000      -2.469586       -67.2008
   4   1.0000      -2.460874       -66.9638
   5   1.0000      -2.458672       -66.9039
   6   1.0000      -2.457749       -66.8787
   7   1.0000      -2.457026       -66.8591
   8   1.0000      -2.456371       -66.8412
   9   1.0000      -2.433390       -66.2159
  10   1.0000      -2.430819       -66.1459
  11   1.0000      -2.427684       -66.0606
  12   1.0000      -0.492197       -13.3934
  13   1.0000      -0.473218       -12.8769
  14   1.0000      -0.459063       -12.4917
  15   1.0000      -0.441742       -12.0204
  16   1.0000      -0.432043       -11.7565
  17   1.0000      -0.431852       -11.7513
  18   1.0000      -0.418269       -11.3817
  19   1.0000      -0.400118       -10.8878
  20   1.0000      -0.395291       -10.7564
  21   1.0000      -0.395103       -10.7513
  22   1.0000      -0.384770       -10.4701
  23   1.0000      -0.383628       -10.4390
  24   1.0000      -0.381424       -10.3791
  25   1.0000      -0.377811       -10.2808
  26   1.0000      -0.356935        -9.7127
  27   1.0000      -0.354126        -9.6363
  28   0.0000      -0.077346        -2.1047
  29   0.0000      -0.073906        -2.0111
  30   0.0000      -0.011252        -0.3062
  31   0.0000      -0.000077        -0.0021
  32   0.0000       0.024821         0.6754

MULLIKEN ATOMIC CHARGES AND SPIN POPULATIONS
--------------------------------------------
   0 Au:   -0.138714    0.652758
   1 Au:    0.069363    0.173604
   2 Au:    0.069352    0.173637
Sum of atomic charges         :   -0.0000000

LOEWDIN ATOMIC CHARGES AND SPIN POPULATIONS
-------------------------------------------
   0 Au:   -0.098037    0.550671
   1 Au:    0.049017    0.224660
   2 Au:    0.049020    0.224670

  Mayer bond orders larger than 0.100000
B(  0-Au,  1-Au) :   0.4710 B(  0-Au,  2-Au) :   0.4710 B(  1-Au,  2-Au) :   0.8360

FINAL SINGLE POINT ENERGY      -406.961120611118

DIPOLE MOMENT
-------------
                                X             Y             Z
Electronic contribution:      0.00001      -0.61390      -0.00000
Nuclear contribution   :      0.00000       0.00000       0.00000
                        -----------------------------------------
Total Dipole Moment    :      0.00001      -0.61390      -0.00000
                        -----------------------------------------
Magnitude (a.u.)       :      0.61390
Magnitude (Debye)      :      1.56040

VIBRATIONAL FREQUENCIES
-----------------------

Scaling factor for frequencies =  1.000000000 (already applied!)

   0:         0.00 cm**-1
   1:         0.00 cm**-1
   2:         0.00 cm**-1
   3:         0.00 cm**-1
   4:         0.00 cm**-1
   5:         0.00 cm**-1
   6:       -36.99 cm**-1 ***imaginary mode***
   7:       100.67 cm**-1
   8:       170.18 cm**-1

IR SPECTRUM
-----------

 Mode    freq (cm**-1)   T**2         TX         TY         TZ
-------------------------------------------------------------------
   7:       100.67    0.027462  ( -0.048231  -0.158542  -0.000011)
   8:       170.18    0.173159  (  0.144355  -0.390283   0.000006)

--------------------------
THERMOCHEMISTRY AT 298.15K
--------------------------

Temperature         ... 298.15 K
Pressure            ... 1.00 atm
Total Mass          ... 590.90 AMU

Throughout the following assumptions are being made:
  (1) The electronic state is orbitally nondegenerate
      but the spin degeneracy is treated
  (2) There are no thermally accessible electronically excited states
  (3) Hindered rotations indicated by low frequency modes are not
      treated as such but are treated as vibrations and this may
      cause some error
  (4) All equations used are the standard statistical mechanics
      equations for an ideal gas
  (5) All vibrations are strictly harmonic

freq.     100.67  E(vib)   ...       0.46
freq.     170.18  E(vib)   ...       0.38

------------
INNER ENERGY
------------

The inner energy is: U= E(el) + E(ZPE) + E(vib) + E(rot) + E(trans)
    E(el)   - is the total energy from the electronic structure calculation
              = E(kin-el) + E(nuc-el) + E(el-el) + E(nuc-nuc)
    E(ZPE)  - the the zero temperature vibrational energy from the frequency calculation
    E(vib)  - the the finite temperature correction to E(ZPE) due to population
              of excited vibrational states
    E(rot)  - is the rotational thermal energy
    E(trans)- is the translational thermal energy

Summary of contributions to the inner energy U:
Electronic energy                ...   -406.96112061 Eh
Zero point energy                ...      0.00061704 Eh       0.39 kcal/mol
Thermal vibrational correction   ...      0.00134235 Eh       0.84 kcal/mol
Thermal rotational correction    ...      0.00141627 Eh       0.89 kcal/mol
Thermal translational correction ...      0.00141627 Eh       0.89 kcal/mol
-----------------------------------------------------------------------
Total thermal energy                   -406.95632867 Eh

Summary of corrections to the electronic energy:
(perhaps to be used in another calculation)
Total thermal correction                  0.00417489 Eh       2.62 kcal/mol
Non-thermal (ZPE) correction              0.00061704 Eh       0.39 kcal/mol
-----------------------------------------------------------------------
Total correction                          0.00479193 Eh       3.01 kcal/mol

--------
ENTHALPY
--------

The enthalpy is H = U + kB*T
                kB is Boltzmann's constant
Total free energy                 ...   -406.95632867 Eh
Thermal Enthalpy correction       ...      0.00094421 Eh       0.59 kcal/mol
-----------------------------------------------------------------------
Total Enthalpy                    ...   -406.95538447 Eh

Note: Rotational entropy computed according to Herzberg
Infrared and Raman Spectra, Chapter V,1, Van Nostrand Reinhold, 1945
Point Group:  Cs, Symmetry Number:   1
Rotational constants in cm-1:     0.026007     0.021320     0.011716

Vibrational entropy computed according to the QRRHO of S. Grimme
Chem.Eur.J. 2012 18 9955

-------
ENTROPY
-------

The entropy contributions are T*S = T*(S(el)+S(vib)+S(rot)+S(trans))
     S(el)   - electronic entropy
     S(vib)  - vibrational entropy
     S(rot)  - rotational entropy
     S(trans)- translational entropy
The entropies will be listed as mutliplied by the temperature to get
units of energy

Electronic entropy                ...      0.00065446 Eh      0.41 kcal/mol
Vibrational entropy               ...      0.00264700 Eh      1.66 kcal/mol
Rotational entropy                ...      0.01514960 Eh      9.51 kcal/mol
Translational entropy             ...      0.02138721 Eh     13.42 kcal/mol
-----------------------------------------------------------------------
Final entropy term                ...      0.03983827 Eh     25.00 kcal/mol

In case the symmetry of your molecule has not been determined correctly
or in case you have a reason to use a different symmetry number we print
out the resulting rotational entropy values for sn=1,12 :
 --------------------------------------------------------
|  sn= 1 | S(rot)=       0.01514960 Eh      9.51 kcal/mol|
|  sn= 2 | S(rot)=       0.01449514 Eh      9.10 kcal/mol|
|  sn= 3 | S(rot)=       0.01411231 Eh      8.86 kcal/mol|
|  sn= 4 | S(rot)=       0.01384069 Eh      8.69 kcal/mol|
|  sn= 5 | S(rot)=       0.01363000 Eh      8.55 kcal/mol|
|  sn= 6 | S(rot)=       0.01345785 Eh      8.44 kcal/mol|
|  sn= 7 | S(rot)=       0.01331231 Eh      8.35 kcal/mol|
|  sn= 8 | S(rot)=       0.01318623 Eh      8.27 kcal/mol|
|  sn= 9 | S(rot)=       0.01307502 Eh      8.20 kcal/mol|
|  sn=10 | S(rot)=       0.01297554 Eh      8.14 kcal/mol|
|  sn=11 | S(rot)=       0.01288555 Eh      8.09 kcal/mol|
|  sn=12 | S(rot)=       0.01280340 Eh      8.03 kcal/mol|
 --------------------------------------------------------

-------------------
GIBBS FREE ENERGY
-------------------

The Gibbs free energy is G = H - T*S

Total enthalpy                    ...   -406.95538447 Eh
Total entropy correction          ...     -0.03983827 Eh    -25.00 kcal/mol
-----------------------------------------------------------------------
Final Gibbs free energy         ...   -406.99522273 Eh

For completeness - the Gibbs free energy minus the electronic energy
G-E(el)                           ...     -0.03410213 Eh    -21.40 kcal/mol

                             ****ORCA TERMINATED NORMALLY****
TOTAL RUN TIME: 0 days 1 hours 33 minutes 37 seconds 213 msec
