                         Program Version 4.2.0 -  RELEASE  -
|  1> #
|  2> # Au03C1_D3H wB97M-V/Def2-TZVPPD
|  3> #
|  4> ! wb97m-v def2-tzvppd def2/jk grid4 nofinalgrid opt xyzfile numfreq numgrad
|  5>
|  6> *xyz 1 1
|  7> Au       0.000000    1.501400   -0.000000
|  8> Au       1.300251   -0.750700   -0.000000
|  9> Au      -1.300251   -0.750700   -0.000000
| 10> *
| 11>
| 12> %maxcore 5000
| 13>
| 14> %pal
| 15> nprocs = 24
| 16> end
| 17>
| 18>
| 19>                          ****END OF INPUT****
 Total Charge           Charge          ....    1
 Multiplicity           Mult            ....    1
 Number of Electrons    NEL             ....   56
FINAL SINGLE POINT ENERGY      -406.727961618588
FINAL SINGLE POINT ENERGY      -406.728103187193
FINAL SINGLE POINT ENERGY      -406.728832231654
FINAL SINGLE POINT ENERGY      -406.728842935323
                    ***********************HURRAY********************

CARTESIAN COORDINATES (ANGSTROEM)
---------------------------------
  Au     0.000005    1.527845    0.000000
  Au     1.323611   -0.763918    0.000000
  Au    -1.323615   -0.763926    0.000000

 Multiplicity           Mult            ....    1
 Number of Electrons    NEL             ....   56
 Basis Dimension        Dim             ....  177

ORBITAL ENERGIES
----------------

  NO   OCC          E(Eh)            E(eV)
   0   2.0000      -4.476682      -121.8167
   1   2.0000      -4.476325      -121.8070
   2   2.0000      -4.476318      -121.8068
   3   2.0000      -2.659549       -72.3700
   4   2.0000      -2.653869       -72.2155
   5   2.0000      -2.653855       -72.2151
   6   2.0000      -2.648849       -72.0789
   7   2.0000      -2.648835       -72.0785
   8   2.0000      -2.647729       -72.0484
   9   2.0000      -2.645930       -71.9994
  10   2.0000      -2.645242       -71.9807
  11   2.0000      -2.645241       -71.9807
  12   2.0000      -0.693683       -18.8761
  13   2.0000      -0.661883       -18.0108
  14   2.0000      -0.661820       -18.0091
  15   2.0000      -0.654406       -17.8073
  16   2.0000      -0.630647       -17.1608
  17   2.0000      -0.624438       -16.9918
  18   2.0000      -0.624401       -16.9908
  19   2.0000      -0.593991       -16.1633
  20   2.0000      -0.593957       -16.1624
  21   2.0000      -0.587442       -15.9851
  22   2.0000      -0.587264       -15.9803
  23   2.0000      -0.587239       -15.9796
  24   2.0000      -0.585002       -15.9187
  25   2.0000      -0.584974       -15.9180
  26   2.0000      -0.553429       -15.0596
  27   2.0000      -0.553340       -15.0571
  28   0.0000      -0.236534        -6.4364
  29   0.0000      -0.236499        -6.4355
  30   0.0000      -0.149580        -4.0703
  31   0.0000      -0.122987        -3.3466
  32   0.0000      -0.105871        -2.8809

MULLIKEN ATOMIC CHARGES
-----------------------
   0 Au:    0.333266
   1 Au:    0.333365
   2 Au:    0.333369
Sum of atomic charges:    1.0000000

LOEWDIN ATOMIC CHARGES
----------------------
   0 Au:    0.333285
   1 Au:    0.333357
   2 Au:    0.333358

  Mayer bond orders larger than 0.100000
B(  0-Au,  1-Au) :   0.5993 B(  0-Au,  2-Au) :   0.5993 B(  1-Au,  2-Au) :   0.5989

FINAL SINGLE POINT ENERGY      -406.728843070339

DIPOLE MOMENT
-------------
                                X             Y             Z
Electronic contribution:     -0.00000      -0.00029       0.00000
Nuclear contribution   :      0.00000       0.00000       0.00000
                        -----------------------------------------
Total Dipole Moment    :     -0.00000      -0.00029       0.00000
                        -----------------------------------------
Magnitude (a.u.)       :      0.00029
Magnitude (Debye)      :      0.00073

VIBRATIONAL FREQUENCIES
-----------------------

Scaling factor for frequencies =  1.000000000 (already applied!)

   0:         0.00 cm**-1
   1:         0.00 cm**-1
   2:         0.00 cm**-1
   3:         0.00 cm**-1
   4:         0.00 cm**-1
   5:         0.00 cm**-1
   6:       110.71 cm**-1
   7:       111.06 cm**-1
   8:       169.73 cm**-1

IR SPECTRUM
-----------

 Mode    freq (cm**-1)   T**2         TX         TY         TZ
-------------------------------------------------------------------
   6:       110.71    0.500859  ( -0.700759  -0.098973  -0.000001)
   7:       111.06    0.509700  ( -0.098039   0.707169   0.000006)
   8:       169.73    0.000007  (  0.000036   0.002720   0.000002)

--------------------------
THERMOCHEMISTRY AT 298.15K
--------------------------

Temperature         ... 298.15 K
Pressure            ... 1.00 atm
Total Mass          ... 590.90 AMU

Throughout the following assumptions are being made:
  (1) The electronic state is orbitally nondegenerate
  (2) There are no thermally accessible electronically excited states
  (3) Hindered rotations indicated by low frequency modes are not
      treated as such but are treated as vibrations and this may
      cause some error
  (4) All equations used are the standard statistical mechanics
      equations for an ideal gas
  (5) All vibrations are strictly harmonic

freq.     110.71  E(vib)   ...       0.45
freq.     111.06  E(vib)   ...       0.45
freq.     169.73  E(vib)   ...       0.38

------------
INNER ENERGY
------------

The inner energy is: U= E(el) + E(ZPE) + E(vib) + E(rot) + E(trans)
    E(el)   - is the total energy from the electronic structure calculation
              = E(kin-el) + E(nuc-el) + E(el-el) + E(nuc-nuc)
    E(ZPE)  - the the zero temperature vibrational energy from the frequency calculation
    E(vib)  - the the finite temperature correction to E(ZPE) due to population
              of excited vibrational states
    E(rot)  - is the rotational thermal energy
    E(trans)- is the translational thermal energy

Summary of contributions to the inner energy U:
Electronic energy                ...   -406.72884307 Eh
Zero point energy                ...      0.00089191 Eh       0.56 kcal/mol
Thermal vibrational correction   ...      0.00203777 Eh       1.28 kcal/mol
Thermal rotational correction    ...      0.00141627 Eh       0.89 kcal/mol
Thermal translational correction ...      0.00141627 Eh       0.89 kcal/mol
-----------------------------------------------------------------------
Total thermal energy                   -406.72308086 Eh

Summary of corrections to the electronic energy:
(perhaps to be used in another calculation)
Total thermal correction                  0.00487031 Eh       3.06 kcal/mol
Non-thermal (ZPE) correction              0.00089191 Eh       0.56 kcal/mol
-----------------------------------------------------------------------
Total correction                          0.00576222 Eh       3.62 kcal/mol

--------
ENTHALPY
--------

The enthalpy is H = U + kB*T
                kB is Boltzmann's constant
Total free energy                 ...   -406.72308086 Eh
Thermal Enthalpy correction       ...      0.00094421 Eh       0.59 kcal/mol
-----------------------------------------------------------------------
Total Enthalpy                    ...   -406.72213665 Eh

Note: Rotational entropy computed according to Herzberg
Infrared and Raman Spectra, Chapter V,1, Van Nostrand Reinhold, 1945
Point Group:  Cs, Symmetry Number:   1
Rotational constants in cm-1:     0.024443     0.024426     0.012217

Vibrational entropy computed according to the QRRHO of S. Grimme
Chem.Eur.J. 2012 18 9955

-------
ENTROPY
-------

The entropy contributions are T*S = T*(S(el)+S(vib)+S(rot)+S(trans))
     S(el)   - electronic entropy
     S(vib)  - vibrational entropy
     S(rot)  - rotational entropy
     S(trans)- translational entropy
The entropies will be listed as mutliplied by the temperature to get
units of energy

Electronic entropy                ...      0.00000000 Eh      0.00 kcal/mol
Vibrational entropy               ...      0.00405514 Eh      2.54 kcal/mol
Rotational entropy                ...      0.01509490 Eh      9.47 kcal/mol
Translational entropy             ...      0.02138721 Eh     13.42 kcal/mol
-----------------------------------------------------------------------
Final entropy term                ...      0.04053725 Eh     25.44 kcal/mol

In case the symmetry of your molecule has not been determined correctly
or in case you have a reason to use a different symmetry number we print
out the resulting rotational entropy values for sn=1,12 :
 --------------------------------------------------------
|  sn= 1 | S(rot)=       0.01509490 Eh      9.47 kcal/mol|
|  sn= 2 | S(rot)=       0.01444044 Eh      9.06 kcal/mol|
|  sn= 3 | S(rot)=       0.01405761 Eh      8.82 kcal/mol|
|  sn= 4 | S(rot)=       0.01378598 Eh      8.65 kcal/mol|
|  sn= 5 | S(rot)=       0.01357530 Eh      8.52 kcal/mol|
|  sn= 6 | S(rot)=       0.01340315 Eh      8.41 kcal/mol|
|  sn= 7 | S(rot)=       0.01325760 Eh      8.32 kcal/mol|
|  sn= 8 | S(rot)=       0.01313153 Eh      8.24 kcal/mol|
|  sn= 9 | S(rot)=       0.01302032 Eh      8.17 kcal/mol|
|  sn=10 | S(rot)=       0.01292084 Eh      8.11 kcal/mol|
|  sn=11 | S(rot)=       0.01283085 Eh      8.05 kcal/mol|
|  sn=12 | S(rot)=       0.01274869 Eh      8.00 kcal/mol|
 --------------------------------------------------------

-------------------
GIBBS FREE ENERGY
-------------------

The Gibbs free energy is G = H - T*S

Total enthalpy                    ...   -406.72213665 Eh
Total entropy correction          ...     -0.04053725 Eh    -25.44 kcal/mol
-----------------------------------------------------------------------
Final Gibbs free energy         ...   -406.76267389 Eh

For completeness - the Gibbs free energy minus the electronic energy
G-E(el)                           ...     -0.03383082 Eh    -21.23 kcal/mol

                             ****ORCA TERMINATED NORMALLY****
TOTAL RUN TIME: 0 days 0 hours 57 minutes 29 seconds 162 msec
