                         Program Version 4.2.0 -  RELEASE  -
|  1> #
|  2> # Cu02N0 wB97M-V/Def2-TZVPPD
|  3> #
|  4> ! wb97m-v def2-tzvppd def2/jk grid4 nofinalgrid opt xyzfile numfreq numgrad
|  5>
|  6> *xyz 0 1
|  7> Cu       0.000000    0.000000    1.107490
|  8> Cu       0.000000    0.000000   -1.107490
|  9> *
| 10>
| 11> %maxcore 5000
| 12>
| 13> %pal
| 14> nprocs = 24
| 15> end
| 16>
| 17>
| 18>                          ****END OF INPUT****
 Total Charge           Charge          ....    0
 Multiplicity           Mult            ....    1
 Number of Electrons    NEL             ....   58
FINAL SINGLE POINT ENERGY     -3280.859140653713
FINAL SINGLE POINT ENERGY     -3280.859181101646
FINAL SINGLE POINT ENERGY     -3280.859820000265
FINAL SINGLE POINT ENERGY     -3280.859827473321
FINAL SINGLE POINT ENERGY     -3280.859827562849
                    ***********************HURRAY********************

CARTESIAN COORDINATES (ANGSTROEM)
---------------------------------
  Cu     0.000000    0.000000    1.140998
  Cu     0.000000    0.000000   -1.140998

 Multiplicity           Mult            ....    1
 Number of Electrons    NEL             ....   58
 Basis Dimension        Dim             ....  134

ORBITAL ENERGIES
----------------

  NO   OCC          E(Eh)            E(eV)
   0   2.0000    -323.523763     -8803.5291
   1   2.0000    -323.523755     -8803.5289
   2   2.0000     -39.035157     -1062.2006
   3   2.0000     -39.035125     -1062.1998
   4   2.0000     -34.136219      -928.8937
   5   2.0000     -34.136211      -928.8935
   6   2.0000     -34.136060      -928.8894
   7   2.0000     -34.136060      -928.8894
   8   2.0000     -34.136053      -928.8892
   9   2.0000     -34.136053      -928.8892
  10   2.0000      -4.424792      -120.4047
  11   2.0000      -4.424361      -120.3930
  12   2.0000      -2.892669       -78.7135
  13   2.0000      -2.888557       -78.6016
  14   2.0000      -2.887675       -78.5776
  15   2.0000      -2.887675       -78.5776
  16   2.0000      -2.887373       -78.5694
  17   2.0000      -2.887373       -78.5694
  18   2.0000      -0.389161       -10.5896
  19   2.0000      -0.377764       -10.2795
  20   2.0000      -0.377764       -10.2795
  21   2.0000      -0.361266        -9.8305
  22   2.0000      -0.361256        -9.8303
  23   2.0000      -0.354174        -9.6376
  24   2.0000      -0.354164        -9.6373
  25   2.0000      -0.344156        -9.3650
  26   2.0000      -0.344156        -9.3650
  27   2.0000      -0.340294        -9.2599
  28   2.0000      -0.278102        -7.5675
  29   0.0000      -0.025455        -0.6927
  30   0.0000       0.022660         0.6166
  31   0.0000       0.022660         0.6166
  32   0.0000       0.037230         1.0131
  33   0.0000       0.067490         1.8365

MULLIKEN ATOMIC CHARGES
-----------------------
   0 Cu:   -0.000004
   1 Cu:    0.000004
Sum of atomic charges:   -0.0000000

LOEWDIN ATOMIC CHARGES
----------------------
   0 Cu:   -0.000000
   1 Cu:    0.000000

  Mayer bond orders larger than 0.100000
B(  0-Cu,  1-Cu) :   1.0486

FINAL SINGLE POINT ENERGY     -3280.859827560043

DIPOLE MOMENT
-------------
                                X             Y             Z
Electronic contribution:      0.00000       0.00000       0.00000
Nuclear contribution   :      0.00000       0.00000       0.00000
                        -----------------------------------------
Total Dipole Moment    :      0.00000       0.00000       0.00000
                        -----------------------------------------
Magnitude (a.u.)       :      0.00000
Magnitude (Debye)      :      0.00000

VIBRATIONAL FREQUENCIES
-----------------------

Scaling factor for frequencies =  1.000000000 (already applied!)

   0:         0.00 cm**-1
   1:         0.00 cm**-1
   2:         0.00 cm**-1
   3:         0.00 cm**-1
   4:         0.00 cm**-1
   5:       256.22 cm**-1

IR SPECTRUM
-----------

 Mode    freq (cm**-1)   T**2         TX         TY         TZ
-------------------------------------------------------------------
   5:       256.22    0.000000  ( -0.000018  -0.000015   0.000052)

--------------------------
THERMOCHEMISTRY AT 298.15K
--------------------------

Temperature         ... 298.15 K
Pressure            ... 1.00 atm
Total Mass          ... 127.10 AMU
The molecule is recognized as being linear

Throughout the following assumptions are being made:
  (1) The electronic state is orbitally nondegenerate
  (2) There are no thermally accessible electronically excited states
  (3) Hindered rotations indicated by low frequency modes are not
      treated as such but are treated as vibrations and this may
      cause some error
  (4) All equations used are the standard statistical mechanics
      equations for an ideal gas
  (5) All vibrations are strictly harmonic

freq.     256.22  E(vib)   ...       0.30

------------
INNER ENERGY
------------

The inner energy is: U= E(el) + E(ZPE) + E(vib) + E(rot) + E(trans)
    E(el)   - is the total energy from the electronic structure calculation
              = E(kin-el) + E(nuc-el) + E(el-el) + E(nuc-nuc)
    E(ZPE)  - the the zero temperature vibrational energy from the frequency calculation
    E(vib)  - the the finite temperature correction to E(ZPE) due to population
              of excited vibrational states
    E(rot)  - is the rotational thermal energy
    E(trans)- is the translational thermal energy

Summary of contributions to the inner energy U:
Electronic energy                ...  -3280.85982756 Eh
Zero point energy                ...      0.00058371 Eh       0.37 kcal/mol
Thermal vibrational correction   ...      0.00047782 Eh       0.30 kcal/mol
Thermal rotational correction    ...      0.00094418 Eh       0.59 kcal/mol
Thermal translational correction ...      0.00141627 Eh       0.89 kcal/mol
-----------------------------------------------------------------------
Total thermal energy                  -3280.85640557 Eh

Summary of corrections to the electronic energy:
(perhaps to be used in another calculation)
Total thermal correction                  0.00283828 Eh       1.78 kcal/mol
Non-thermal (ZPE) correction              0.00058371 Eh       0.37 kcal/mol
-----------------------------------------------------------------------
Total correction                          0.00342199 Eh       2.15 kcal/mol

--------
ENTHALPY
--------

The enthalpy is H = U + kB*T
                kB is Boltzmann's constant
Total free energy                 ...  -3280.85640557 Eh
Thermal Enthalpy correction       ...      0.00094421 Eh       0.59 kcal/mol
-----------------------------------------------------------------------
Total Enthalpy                    ...  -3280.85546136 Eh

Note: Rotational entropy computed according to Herzberg
Infrared and Raman Spectra, Chapter V,1, Van Nostrand Reinhold, 1945
Point Group:  Dinfh, Symmetry Number:   2
Rotational constants in cm-1:     0.000000     0.101878     0.101878

Vibrational entropy computed according to the QRRHO of S. Grimme
Chem.Eur.J. 2012 18 9955

-------
ENTROPY
-------

The entropy contributions are T*S = T*(S(el)+S(vib)+S(rot)+S(trans))
     S(el)   - electronic entropy
     S(vib)  - vibrational entropy
     S(rot)  - rotational entropy
     S(trans)- translational entropy
The entropies will be listed as mutliplied by the temperature to get
units of energy

Electronic entropy                ...      0.00000000 Eh      0.00 kcal/mol
Vibrational entropy               ...      0.00080426 Eh      0.50 kcal/mol
Rotational entropy                ...      0.00748229 Eh      4.70 kcal/mol
Translational entropy             ...      0.01921087 Eh     12.05 kcal/mol
-----------------------------------------------------------------------
Final entropy term                ...      0.02749742 Eh     17.25 kcal/mol

In case the symmetry of your molecule has not been determined correctly
or in case you have a reason to use a different symmetry number we print
out the resulting rotational entropy values for sn=1,12 :
 --------------------------------------------------------
|  sn= 1 | S(rot)=             -inf Eh      -inf kcal/mol|
|  sn= 2 | S(rot)=             -inf Eh      -inf kcal/mol|
|  sn= 3 | S(rot)=             -inf Eh      -inf kcal/mol|
|  sn= 4 | S(rot)=             -inf Eh      -inf kcal/mol|
|  sn= 5 | S(rot)=             -inf Eh      -inf kcal/mol|
|  sn= 6 | S(rot)=             -inf Eh      -inf kcal/mol|
|  sn= 7 | S(rot)=             -inf Eh      -inf kcal/mol|
|  sn= 8 | S(rot)=             -inf Eh      -inf kcal/mol|
|  sn= 9 | S(rot)=             -inf Eh      -inf kcal/mol|
|  sn=10 | S(rot)=             -inf Eh      -inf kcal/mol|
|  sn=11 | S(rot)=             -inf Eh      -inf kcal/mol|
|  sn=12 | S(rot)=             -inf Eh      -inf kcal/mol|
 --------------------------------------------------------

-------------------
GIBBS FREE ENERGY
-------------------

The Gibbs free energy is G = H - T*S

Total enthalpy                    ...  -3280.85546136 Eh
Total entropy correction          ...     -0.02749742 Eh    -17.25 kcal/mol
-----------------------------------------------------------------------
Final Gibbs free energy         ...  -3280.88295879 Eh

For completeness - the Gibbs free energy minus the electronic energy
G-E(el)                           ...     -0.02313122 Eh    -14.52 kcal/mol

                             ****ORCA TERMINATED NORMALLY****
TOTAL RUN TIME: 0 days 0 hours 16 minutes 35 seconds 823 msec
