                         Program Version 4.2.0 -  RELEASE  -
|  1> #
|  2> # Cu03N0_D3H wB97M-V/Def2-TZVPPD
|  3> #
|  4> ! wb97m-v def2-tzvppd def2/jk grid4 nofinalgrid opt xyzfile numfreq numgrad
|  5>
|  6> *xyz 0 2
|  7> Cu       0.000000    1.346828   -0.000000
|  8> Cu       1.166387   -0.673414   -0.000000
|  9> Cu      -1.166387   -0.673414   -0.000000
| 10> *
| 11>
| 12> %maxcore 5000
| 13>
| 14> %pal
| 15> nprocs = 24
| 16> end
| 17>
| 18>
| 19>                          ****END OF INPUT****
 Total Charge           Charge          ....    0
 Multiplicity           Mult            ....    2
 Number of Electrons    NEL             ....   87
FINAL SINGLE POINT ENERGY     -4921.281703256625
FINAL SINGLE POINT ENERGY     -4921.281877097577
ORCA finished by error termination in SCF
ORCA finished by error termination in SCF
FINAL SINGLE POINT ENERGY     -4921.285170283060
FINAL SINGLE POINT ENERGY     -4921.285476851878
FINAL SINGLE POINT ENERGY     -4921.285501824560
FINAL SINGLE POINT ENERGY     -4921.285507382084
FINAL SINGLE POINT ENERGY     -4921.285527466427
FINAL SINGLE POINT ENERGY     -4921.285548023257
FINAL SINGLE POINT ENERGY     -4921.285562599466
FINAL SINGLE POINT ENERGY     -4921.285566414895

CARTESIAN COORDINATES (ANGSTROEM)
---------------------------------
  Cu    -0.000056    1.481469    0.000000
  Cu     1.145456   -0.740786    0.000000
  Cu    -1.145400   -0.740683    0.000000

 Multiplicity           Mult            ....    2
 Number of Electrons    NEL             ....   87
 Basis Dimension        Dim             ....  201

ORBITAL ENERGIES
----------------
                 SPIN UP ORBITALS
  NO   OCC          E(Eh)            E(eV)
   0   1.0000    -323.548619     -8804.2055
   1   1.0000    -323.548606     -8804.2052
   2   1.0000    -323.529619     -8803.6885
   3   1.0000     -39.060568     -1062.8921
   4   1.0000     -39.060544     -1062.8914
   5   1.0000     -39.043333     -1062.4231
   6   1.0000     -34.161851      -929.5912
   7   1.0000     -34.161839      -929.5909
   8   1.0000     -34.161525      -929.5824
   9   1.0000     -34.161510      -929.5819
  10   1.0000     -34.161084      -929.5704
  11   1.0000     -34.161071      -929.5700
  12   1.0000     -34.144558      -929.1207
  13   1.0000     -34.144237      -929.1119
  14   1.0000     -34.143072      -929.0802
  15   1.0000      -4.450178      -121.0955
  16   1.0000      -4.449757      -121.0841
  17   1.0000      -4.431163      -120.5781
  18   1.0000      -2.918213       -79.4086
  19   1.0000      -2.914373       -79.3041
  20   1.0000      -2.913325       -79.2756
  21   1.0000      -2.912886       -79.2636
  22   1.0000      -2.912382       -79.2500
  23   1.0000      -2.912089       -79.2420
  24   1.0000      -2.895780       -78.7982
  25   1.0000      -2.895125       -78.7803
  26   1.0000      -2.892591       -78.7114
  27   1.0000      -0.422684       -11.5018
  28   1.0000      -0.411469       -11.1966
  29   1.0000      -0.404904       -11.0180
  30   1.0000      -0.393537       -10.7087
  31   1.0000      -0.391929       -10.6649
  32   1.0000      -0.390624       -10.6294
  33   1.0000      -0.382109       -10.3977
  34   1.0000      -0.371790       -10.1169
  35   1.0000      -0.368648       -10.0314
  36   1.0000      -0.368636       -10.0311
  37   1.0000      -0.362332        -9.8595
  38   1.0000      -0.360948        -9.8219
  39   1.0000      -0.360377        -9.8064
  40   1.0000      -0.357698        -9.7334
  41   1.0000      -0.348070        -9.4715
  42   1.0000      -0.337129        -9.1737
  43   1.0000      -0.204578        -5.5669
  44   0.0000      -0.039104        -1.0641
  45   0.0000       0.005811         0.1581
  46   0.0000       0.020179         0.5491
  47   0.0000       0.038043         1.0352
  48   0.0000       0.045482         1.2376

                 SPIN DOWN ORBITALS
  NO   OCC          E(Eh)            E(eV)
   0   1.0000    -323.548372     -8804.1988
   1   1.0000    -323.548358     -8804.1984
   2   1.0000    -323.528909     -8803.6692
   3   1.0000     -39.060150     -1062.8807
   4   1.0000     -39.060125     -1062.8800
   5   1.0000     -39.042251     -1062.3937
   6   1.0000     -34.161438      -929.5800
   7   1.0000     -34.161424      -929.5796
   8   1.0000     -34.160946      -929.5666
   9   1.0000     -34.160932      -929.5662
  10   1.0000     -34.160924      -929.5660
  11   1.0000     -34.160910      -929.5656
  12   1.0000     -34.143639      -929.0957
  13   1.0000     -34.143332      -929.0873
  14   1.0000     -34.142527      -929.0654
  15   1.0000      -4.449280      -121.0711
  16   1.0000      -4.448860      -121.0596
  17   1.0000      -4.428758      -120.5126
  18   1.0000      -2.917041       -79.3767
  19   1.0000      -2.913418       -79.2781
  20   1.0000      -2.912307       -79.2479
  21   1.0000      -2.911824       -79.2347
  22   1.0000      -2.911735       -79.2323
  23   1.0000      -2.911545       -79.2272
  24   1.0000      -2.893951       -78.7484
  25   1.0000      -2.892671       -78.7136
  26   1.0000      -2.890440       -78.6529
  27   1.0000      -0.419841       -11.4245
  28   1.0000      -0.408532       -11.1167
  29   1.0000      -0.403707       -10.9854
  30   1.0000      -0.390335       -10.6215
  31   1.0000      -0.389099       -10.5879
  32   1.0000      -0.388618       -10.5748
  33   1.0000      -0.380920       -10.3654
  34   1.0000      -0.370005       -10.0683
  35   1.0000      -0.367960       -10.0127
  36   1.0000      -0.367686       -10.0053
  37   1.0000      -0.358663        -9.7597
  38   1.0000      -0.357569        -9.7299
  39   1.0000      -0.356312        -9.6957
  40   1.0000      -0.355093        -9.6626
  41   1.0000      -0.344097        -9.3633
  42   1.0000      -0.321457        -8.7473
  43   0.0000      -0.079863        -2.1732
  44   0.0000      -0.055607        -1.5131
  45   0.0000      -0.040241        -1.0950
  46   0.0000      -0.014060        -0.3826
  47   0.0000      -0.003994        -0.1087

MULLIKEN ATOMIC CHARGES AND SPIN POPULATIONS
--------------------------------------------
   0 Cu:   -0.066038    0.579133
   1 Cu:    0.032982    0.210595
   2 Cu:    0.033057    0.210273
Sum of atomic charges         :   -0.0000000

LOEWDIN ATOMIC CHARGES AND SPIN POPULATIONS
-------------------------------------------
   0 Cu:   -0.015671    0.405288
   1 Cu:    0.007850    0.297369
   2 Cu:    0.007821    0.297343

  Mayer bond orders larger than 0.100000
B(  0-Cu,  1-Cu) :   0.4181 B(  0-Cu,  2-Cu) :   0.4182 B(  1-Cu,  2-Cu) :   0.8269

FINAL SINGLE POINT ENERGY     -4921.285566765281

DIPOLE MOMENT
-------------
                                X             Y             Z
Electronic contribution:     -0.00009      -0.34047       0.00000
Nuclear contribution   :      0.00000       0.00000       0.00000
                        -----------------------------------------
Total Dipole Moment    :     -0.00009      -0.34047       0.00000
                        -----------------------------------------
Magnitude (a.u.)       :      0.34047
Magnitude (Debye)      :      0.86540

VIBRATIONAL FREQUENCIES
-----------------------

Scaling factor for frequencies =  1.000000000 (already applied!)

   0:         0.00 cm**-1
   1:         0.00 cm**-1
   2:         0.00 cm**-1
   3:         0.00 cm**-1
   4:         0.00 cm**-1
   5:         0.00 cm**-1
   6:      -126.10 cm**-1 ***imaginary mode***
   7:       162.38 cm**-1
   8:       256.42 cm**-1

IR SPECTRUM
-----------

 Mode    freq (cm**-1)   T**2         TX         TY         TZ
-------------------------------------------------------------------
   7:       162.38    0.245442  (  0.002719  -0.495413   0.000008)
   8:       256.42    2.060440  ( -0.005152  -1.435414  -0.000000)

--------------------------
THERMOCHEMISTRY AT 298.15K
--------------------------

Temperature         ... 298.15 K
Pressure            ... 1.00 atm
Total Mass          ... 190.65 AMU

Throughout the following assumptions are being made:
  (1) The electronic state is orbitally nondegenerate
      but the spin degeneracy is treated
  (2) There are no thermally accessible electronically excited states
  (3) Hindered rotations indicated by low frequency modes are not
      treated as such but are treated as vibrations and this may
      cause some error
  (4) All equations used are the standard statistical mechanics
      equations for an ideal gas
  (5) All vibrations are strictly harmonic

freq.     162.38  E(vib)   ...       0.39
freq.     256.42  E(vib)   ...       0.30

------------
INNER ENERGY
------------

The inner energy is: U= E(el) + E(ZPE) + E(vib) + E(rot) + E(trans)
    E(el)   - is the total energy from the electronic structure calculation
              = E(kin-el) + E(nuc-el) + E(el-el) + E(nuc-nuc)
    E(ZPE)  - the the zero temperature vibrational energy from the frequency calculation
    E(vib)  - the the finite temperature correction to E(ZPE) due to population
              of excited vibrational states
    E(rot)  - is the rotational thermal energy
    E(trans)- is the translational thermal energy

Summary of contributions to the inner energy U:
Electronic energy                ...  -4921.28556676 Eh
Zero point energy                ...      0.00095411 Eh       0.60 kcal/mol
Thermal vibrational correction   ...      0.00109964 Eh       0.69 kcal/mol
Thermal rotational correction    ...      0.00141627 Eh       0.89 kcal/mol
Thermal translational correction ...      0.00141627 Eh       0.89 kcal/mol
-----------------------------------------------------------------------
Total thermal energy                  -4921.28068047 Eh

Summary of corrections to the electronic energy:
(perhaps to be used in another calculation)
Total thermal correction                  0.00393219 Eh       2.47 kcal/mol
Non-thermal (ZPE) correction              0.00095411 Eh       0.60 kcal/mol
-----------------------------------------------------------------------
Total correction                          0.00488629 Eh       3.07 kcal/mol

--------
ENTHALPY
--------

The enthalpy is H = U + kB*T
                kB is Boltzmann's constant
Total free energy                 ...  -4921.28068047 Eh
Thermal Enthalpy correction       ...      0.00094421 Eh       0.59 kcal/mol
-----------------------------------------------------------------------
Total Enthalpy                    ...  -4921.27973626 Eh

Note: Rotational entropy computed according to Herzberg
Infrared and Raman Spectra, Chapter V,1, Van Nostrand Reinhold, 1945
Point Group:  Cs, Symmetry Number:   1
Rotational constants in cm-1:     0.101092     0.080576     0.044838

Vibrational entropy computed according to the QRRHO of S. Grimme
Chem.Eur.J. 2012 18 9955

-------
ENTROPY
-------

The entropy contributions are T*S = T*(S(el)+S(vib)+S(rot)+S(trans))
     S(el)   - electronic entropy
     S(vib)  - vibrational entropy
     S(rot)  - rotational entropy
     S(trans)- translational entropy
The entropies will be listed as mutliplied by the temperature to get
units of energy

Electronic entropy                ...      0.00065446 Eh      0.41 kcal/mol
Vibrational entropy               ...      0.00199297 Eh      1.25 kcal/mol
Rotational entropy                ...      0.01324740 Eh      8.31 kcal/mol
Translational entropy             ...      0.01978512 Eh     12.42 kcal/mol
-----------------------------------------------------------------------
Final entropy term                ...      0.03567994 Eh     22.39 kcal/mol

In case the symmetry of your molecule has not been determined correctly
or in case you have a reason to use a different symmetry number we print
out the resulting rotational entropy values for sn=1,12 :
 --------------------------------------------------------
|  sn= 1 | S(rot)=       0.01324740 Eh      8.31 kcal/mol|
|  sn= 2 | S(rot)=       0.01259294 Eh      7.90 kcal/mol|
|  sn= 3 | S(rot)=       0.01221011 Eh      7.66 kcal/mol|
|  sn= 4 | S(rot)=       0.01193849 Eh      7.49 kcal/mol|
|  sn= 5 | S(rot)=       0.01172780 Eh      7.36 kcal/mol|
|  sn= 6 | S(rot)=       0.01155566 Eh      7.25 kcal/mol|
|  sn= 7 | S(rot)=       0.01141011 Eh      7.16 kcal/mol|
|  sn= 8 | S(rot)=       0.01128403 Eh      7.08 kcal/mol|
|  sn= 9 | S(rot)=       0.01117282 Eh      7.01 kcal/mol|
|  sn=10 | S(rot)=       0.01107334 Eh      6.95 kcal/mol|
|  sn=11 | S(rot)=       0.01098335 Eh      6.89 kcal/mol|
|  sn=12 | S(rot)=       0.01090120 Eh      6.84 kcal/mol|
 --------------------------------------------------------

-------------------
GIBBS FREE ENERGY
-------------------

The Gibbs free energy is G = H - T*S

Total enthalpy                    ...  -4921.27973626 Eh
Total entropy correction          ...     -0.03567994 Eh    -22.39 kcal/mol
-----------------------------------------------------------------------
Final Gibbs free energy         ...  -4921.31541620 Eh

For completeness - the Gibbs free energy minus the electronic energy
G-E(el)                           ...     -0.02984944 Eh    -18.73 kcal/mol

                             ****ORCA TERMINATED NORMALLY****
TOTAL RUN TIME: 0 days 3 hours 17 minutes 24 seconds 876 msec
