                         Program Version 4.2.0 -  RELEASE  -
|  1> #
|  2> # Cu03C1_D3H wB97M-V/Def2-TZVPPD
|  3> #
|  4> ! wb97m-v def2-tzvppd def2/jk grid4 nofinalgrid opt xyzfile numfreq numgrad
|  5>
|  6> *xyz 1 1
|  7> Cu       0.000000    1.349261   -0.000000
|  8> Cu       1.168494   -0.674630    0.000000
|  9> Cu      -1.168494   -0.674630   -0.000000
| 10> *
| 11>
| 12> %maxcore 5000
| 13>
| 14> %pal
| 15> nprocs = 24
| 16> end
| 17>
| 18>
| 19>                          ****END OF INPUT****
 Total Charge           Charge          ....    1
 Multiplicity           Mult            ....    1
 Number of Electrons    NEL             ....   86
FINAL SINGLE POINT ENERGY     -4921.092243191326
FINAL SINGLE POINT ENERGY     -4921.092303542090
FINAL SINGLE POINT ENERGY     -4921.093332418729
FINAL SINGLE POINT ENERGY     -4921.093361724697
FINAL SINGLE POINT ENERGY     -4921.093362375014
                    ***********************HURRAY********************

CARTESIAN COORDINATES (ANGSTROEM)
---------------------------------
  Cu     0.000003    1.387522    0.000000
  Cu     1.201148   -0.693758    0.000000
  Cu    -1.201151   -0.693763    0.000000

 Multiplicity           Mult            ....    1
 Number of Electrons    NEL             ....   86
 Basis Dimension        Dim             ....  201

ORBITAL ENERGIES
----------------

  NO   OCC          E(Eh)            E(eV)
   0   2.0000    -323.742619     -8809.4845
   1   2.0000    -323.742616     -8809.4844
   2   2.0000    -323.742608     -8809.4842
   3   2.0000     -39.252650     -1068.1189
   4   2.0000     -39.252650     -1068.1189
   5   2.0000     -39.252614     -1068.1179
   6   2.0000     -34.354483      -934.8330
   7   2.0000     -34.354467      -934.8326
   8   2.0000     -34.354466      -934.8325
   9   2.0000     -34.353677      -934.8111
  10   2.0000     -34.353676      -934.8111
  11   2.0000     -34.353662      -934.8107
  12   2.0000     -34.353147      -934.7967
  13   2.0000     -34.353147      -934.7967
  14   2.0000     -34.353139      -934.7964
  15   2.0000      -4.643211      -126.3482
  16   2.0000      -4.642888      -126.3394
  17   2.0000      -4.642885      -126.3393
  18   2.0000      -3.110312       -84.6359
  19   2.0000      -3.108938       -84.5985
  20   2.0000      -3.108932       -84.5983
  21   2.0000      -3.107325       -84.5546
  22   2.0000      -3.107012       -84.5461
  23   2.0000      -3.107007       -84.5460
  24   2.0000      -3.105209       -84.4970
  25   2.0000      -3.104973       -84.4906
  26   2.0000      -3.104967       -84.4904
  27   2.0000      -0.618411       -16.8278
  28   2.0000      -0.601283       -16.3617
  29   2.0000      -0.601243       -16.3606
  30   2.0000      -0.600001       -16.3268
  31   2.0000      -0.588921       -16.0253
  32   2.0000      -0.585340       -15.9279
  33   2.0000      -0.585334       -15.9277
  34   2.0000      -0.568936       -15.4815
  35   2.0000      -0.568914       -15.4809
  36   2.0000      -0.566238       -15.4081
  37   2.0000      -0.564218       -15.3531
  38   2.0000      -0.564157       -15.3515
  39   2.0000      -0.563106       -15.3229
  40   2.0000      -0.563074       -15.3220
  41   2.0000      -0.547329       -14.8936
  42   2.0000      -0.516918       -14.0660
  43   0.0000      -0.204861        -5.5745
  44   0.0000      -0.204829        -5.5737
  45   0.0000      -0.153463        -4.1759
  46   0.0000      -0.125817        -3.4237
  47   0.0000      -0.102981        -2.8022

MULLIKEN ATOMIC CHARGES
-----------------------
   0 Cu:    0.333542
   1 Cu:    0.333226
   2 Cu:    0.333231
Sum of atomic charges:    1.0000000

LOEWDIN ATOMIC CHARGES
----------------------
   0 Cu:    0.333399
   1 Cu:    0.333300
   2 Cu:    0.333301

  Mayer bond orders larger than 0.100000
B(  0-Cu,  1-Cu) :   0.5157 B(  0-Cu,  2-Cu) :   0.5156 B(  1-Cu,  2-Cu) :   0.5160

FINAL SINGLE POINT ENERGY     -4921.093362389329

DIPOLE MOMENT
-------------
                                X             Y             Z
Electronic contribution:     -0.00000       0.00036      -0.00000
Nuclear contribution   :     -0.00000       0.00000       0.00000
                        -----------------------------------------
Total Dipole Moment    :     -0.00000       0.00036      -0.00000
                        -----------------------------------------
Magnitude (a.u.)       :      0.00036
Magnitude (Debye)      :      0.00091

VIBRATIONAL FREQUENCIES
-----------------------

Scaling factor for frequencies =  1.000000000 (already applied!)

   0:         0.00 cm**-1
   1:         0.00 cm**-1
   2:         0.00 cm**-1
   3:         0.00 cm**-1
   4:         0.00 cm**-1
   5:         0.00 cm**-1
   6:       164.97 cm**-1
   7:       165.15 cm**-1
   8:       232.93 cm**-1

IR SPECTRUM
-----------

 Mode    freq (cm**-1)   T**2         TX         TY         TZ
-------------------------------------------------------------------
   6:       164.97    1.800971  (  0.552486   1.223000   0.000006)
   7:       165.15    1.797611  ( -1.221301   0.553205  -0.000004)
   8:       232.93    0.000405  (  0.000104  -0.020121  -0.000002)

--------------------------
THERMOCHEMISTRY AT 298.15K
--------------------------

Temperature         ... 298.15 K
Pressure            ... 1.00 atm
Total Mass          ... 190.65 AMU

Throughout the following assumptions are being made:
  (1) The electronic state is orbitally nondegenerate
  (2) There are no thermally accessible electronically excited states
  (3) Hindered rotations indicated by low frequency modes are not
      treated as such but are treated as vibrations and this may
      cause some error
  (4) All equations used are the standard statistical mechanics
      equations for an ideal gas
  (5) All vibrations are strictly harmonic

freq.     164.97  E(vib)   ...       0.39
freq.     165.15  E(vib)   ...       0.39
freq.     232.93  E(vib)   ...       0.32

------------
INNER ENERGY
------------

The inner energy is: U= E(el) + E(ZPE) + E(vib) + E(rot) + E(trans)
    E(el)   - is the total energy from the electronic structure calculation
              = E(kin-el) + E(nuc-el) + E(el-el) + E(nuc-nuc)
    E(ZPE)  - the the zero temperature vibrational energy from the frequency calculation
    E(vib)  - the the finite temperature correction to E(ZPE) due to population
              of excited vibrational states
    E(rot)  - is the rotational thermal energy
    E(trans)- is the translational thermal energy

Summary of contributions to the inner energy U:
Electronic energy                ...  -4921.09336239 Eh
Zero point energy                ...      0.00128273 Eh       0.80 kcal/mol
Thermal vibrational correction   ...      0.00174607 Eh       1.10 kcal/mol
Thermal rotational correction    ...      0.00141627 Eh       0.89 kcal/mol
Thermal translational correction ...      0.00141627 Eh       0.89 kcal/mol
-----------------------------------------------------------------------
Total thermal energy                  -4921.08750104 Eh

Summary of corrections to the electronic energy:
(perhaps to be used in another calculation)
Total thermal correction                  0.00457862 Eh       2.87 kcal/mol
Non-thermal (ZPE) correction              0.00128273 Eh       0.80 kcal/mol
-----------------------------------------------------------------------
Total correction                          0.00586135 Eh       3.68 kcal/mol

--------
ENTHALPY
--------

The enthalpy is H = U + kB*T
                kB is Boltzmann's constant
Total free energy                 ...  -4921.08750104 Eh
Thermal Enthalpy correction       ...      0.00094421 Eh       0.59 kcal/mol
-----------------------------------------------------------------------
Total Enthalpy                    ...  -4921.08655683 Eh

Note: Rotational entropy computed according to Herzberg
Infrared and Raman Spectra, Chapter V,1, Van Nostrand Reinhold, 1945
Point Group:  Cs, Symmetry Number:   1
Rotational constants in cm-1:     0.091930     0.091857     0.045947

Vibrational entropy computed according to the QRRHO of S. Grimme
Chem.Eur.J. 2012 18 9955

-------
ENTROPY
-------

The entropy contributions are T*S = T*(S(el)+S(vib)+S(rot)+S(trans))
     S(el)   - electronic entropy
     S(vib)  - vibrational entropy
     S(rot)  - rotational entropy
     S(trans)- translational entropy
The entropies will be listed as mutliplied by the temperature to get
units of energy

Electronic entropy                ...      0.00000000 Eh      0.00 kcal/mol
Vibrational entropy               ...      0.00323649 Eh      2.03 kcal/mol
Rotational entropy                ...      0.01321886 Eh      8.29 kcal/mol
Translational entropy             ...      0.01978512 Eh     12.42 kcal/mol
-----------------------------------------------------------------------
Final entropy term                ...      0.03624046 Eh     22.74 kcal/mol

In case the symmetry of your molecule has not been determined correctly
or in case you have a reason to use a different symmetry number we print
out the resulting rotational entropy values for sn=1,12 :
 --------------------------------------------------------
|  sn= 1 | S(rot)=       0.01321886 Eh      8.29 kcal/mol|
|  sn= 2 | S(rot)=       0.01256440 Eh      7.88 kcal/mol|
|  sn= 3 | S(rot)=       0.01218157 Eh      7.64 kcal/mol|
|  sn= 4 | S(rot)=       0.01190995 Eh      7.47 kcal/mol|
|  sn= 5 | S(rot)=       0.01169926 Eh      7.34 kcal/mol|
|  sn= 6 | S(rot)=       0.01152711 Eh      7.23 kcal/mol|
|  sn= 7 | S(rot)=       0.01138157 Eh      7.14 kcal/mol|
|  sn= 8 | S(rot)=       0.01125549 Eh      7.06 kcal/mol|
|  sn= 9 | S(rot)=       0.01114428 Eh      6.99 kcal/mol|
|  sn=10 | S(rot)=       0.01104480 Eh      6.93 kcal/mol|
|  sn=11 | S(rot)=       0.01095481 Eh      6.87 kcal/mol|
|  sn=12 | S(rot)=       0.01087266 Eh      6.82 kcal/mol|
 --------------------------------------------------------

-------------------
GIBBS FREE ENERGY
-------------------

The Gibbs free energy is G = H - T*S

Total enthalpy                    ...  -4921.08655683 Eh
Total entropy correction          ...     -0.03624046 Eh    -22.74 kcal/mol
-----------------------------------------------------------------------
Final Gibbs free energy         ...  -4921.12279730 Eh

For completeness - the Gibbs free energy minus the electronic energy
G-E(el)                           ...     -0.02943491 Eh    -18.47 kcal/mol

                             ****ORCA TERMINATED NORMALLY****
TOTAL RUN TIME: 0 days 1 hours 21 minutes 11 seconds 854 msec
