                         Program Version 4.2.0 -  RELEASE  -
|  1> #
|  2> # Ag01N0 TPSSh-D3BJ/Def2-TZVPPD
|  3> #
|  4> ! tpssh d3bj def2-tzvppd def2/jk grid4 nofinalgrid
|  5>
|  6> *xyz 0 2
|  7> Ag       0.000000    0.000000    0.000000
|  8> *
|  9>
| 10> %maxcore 5000
| 11>
| 12> %pal
| 13> nprocs = 24
| 14> end
| 15>
| 16>
| 17>                          ****END OF INPUT****

CARTESIAN COORDINATES (ANGSTROEM)
---------------------------------
  Ag     0.000000    0.000000    0.000000

 Total Charge           Charge          ....    0
 Multiplicity           Mult            ....    2
 Number of Electrons    NEL             ....   19
 Basis Dimension        Dim             ....   56

ORBITAL ENERGIES
----------------
                 SPIN UP ORBITALS
  NO   OCC          E(Eh)            E(eV)
   0   1.0000      -3.658719       -99.5588
   1   1.0000      -2.264372       -61.6167
   2   1.0000      -2.264372       -61.6167
   3   1.0000      -2.264372       -61.6167
   4   1.0000      -0.294296        -8.0082
   5   1.0000      -0.294296        -8.0082
   6   1.0000      -0.294296        -8.0082
   7   1.0000      -0.294296        -8.0082
   8   1.0000      -0.294296        -8.0082
   9   1.0000      -0.180278        -4.9056
  10   0.0000      -0.017916        -0.4875
  11   0.0000      -0.017916        -0.4875
  12   0.0000      -0.017916        -0.4875
  13   0.0000       0.086321         2.3489
  14   0.0000       0.184415         5.0182

                 SPIN DOWN ORBITALS
  NO   OCC          E(Eh)            E(eV)
   0   1.0000      -3.658837       -99.5620
   1   1.0000      -2.264566       -61.6220
   2   1.0000      -2.264566       -61.6220
   3   1.0000      -2.264566       -61.6220
   4   1.0000      -0.286614        -7.7992
   5   1.0000      -0.286614        -7.7992
   6   1.0000      -0.286614        -7.7992
   7   1.0000      -0.286614        -7.7992
   8   1.0000      -0.286614        -7.7992
   9   0.0000      -0.121370        -3.3027
  10   0.0000       0.011904         0.3239
  11   0.0000       0.011904         0.3239
  12   0.0000       0.011904         0.3239
  13   0.0000       0.117092         3.1862

MULLIKEN ATOMIC CHARGES AND SPIN POPULATIONS
--------------------------------------------
   0 Ag:   -0.000000    1.000000
Sum of atomic charges         :   -0.0000000

LOEWDIN ATOMIC CHARGES AND SPIN POPULATIONS
-------------------------------------------
   0 Ag:   -0.000000    1.000000

Dispersion correction            0.000000000
FINAL SINGLE POINT ENERGY      -146.912500069026

DIPOLE MOMENT
-------------
                                X             Y             Z
Electronic contribution:      0.00000       0.00000       0.00000
Nuclear contribution   :      0.00000       0.00000       0.00000
                        -----------------------------------------
Total Dipole Moment    :      0.00000       0.00000       0.00000
                        -----------------------------------------
Magnitude (a.u.)       :      0.00000
Magnitude (Debye)      :      0.00000

Rotational constants in cm-1:     0.000000     0.000000     0.000000
Rotational constants in MHz :     0.000000     0.000000     0.000000

                             ****ORCA TERMINATED NORMALLY****
TOTAL RUN TIME: 0 days 0 hours 0 minutes 4 seconds 396 msec
