                         Program Version 4.2.0 -  RELEASE  -
|  1> #
|  2> # Ag01N0_F TPSSh-D3BJ/Def2-TZVPPD
|  3> #
|  4> ! tpssh d3bj def2-tzvppd def2/jk grid4 nofinalgrid
|  5>
|  6> *xyz 0 1
|  7> Ag       0.000000    0.000000    0.317712
|  8> F        0.000000    0.000000   -1.659163
|  9> *
| 10>
| 11> %maxcore 5000
| 12>
| 13> %pal
| 14> nprocs = 24
| 15> end
| 16>
| 17>
| 18>                          ****END OF INPUT****

CARTESIAN COORDINATES (ANGSTROEM)
---------------------------------
  Ag     0.000000    0.000000    0.317712
  F      0.000000    0.000000   -1.659163

 Total Charge           Charge          ....    0
 Multiplicity           Mult            ....    1
 Number of Electrons    NEL             ....   28
 Basis Dimension        Dim             ....   96

ORBITAL ENERGIES
----------------

  NO   OCC          E(Eh)            E(eV)
   0   2.0000     -24.486943      -666.3236
   1   2.0000      -3.697779      -100.6217
   2   2.0000      -2.305345       -62.7316
   3   2.0000      -2.303000       -62.6678
   4   2.0000      -2.303000       -62.6678
   5   2.0000      -1.014011       -27.5927
   6   2.0000      -0.375348       -10.2137
   7   2.0000      -0.345724        -9.4076
   8   2.0000      -0.345724        -9.4076
   9   2.0000      -0.327170        -8.9028
  10   2.0000      -0.327170        -8.9027
  11   2.0000      -0.265654        -7.2288
  12   2.0000      -0.265654        -7.2288
  13   2.0000      -0.262242        -7.1360
  14   0.0000      -0.130407        -3.5485
  15   0.0000      -0.005788        -0.1575
  16   0.0000      -0.005788        -0.1575
  17   0.0000       0.033939         0.9235
  18   0.0000       0.083491         2.2719

MULLIKEN ATOMIC CHARGES
-----------------------
   0 Ag:    0.681028
   1 F :   -0.681028
Sum of atomic charges:    0.0000000

LOEWDIN ATOMIC CHARGES
----------------------
   0 Ag:    0.700275
   1 F :   -0.700275

  Mayer bond orders larger than 0.100000
B(  0-Ag,  1-F ) :   0.5269

Dispersion correction           -0.000557563
FINAL SINGLE POINT ENERGY      -246.804683219754

DIPOLE MOMENT
-------------
                                X             Y             Z
Electronic contribution:      0.00000       0.00000      20.14175
Nuclear contribution   :      0.00000       0.00000     -17.95816
                        -----------------------------------------
Total Dipole Moment    :      0.00000       0.00000       2.18359
                        -----------------------------------------
Magnitude (a.u.)       :      2.18359
Magnitude (Debye)      :      5.55025

Rotational constants in cm-1:     0.000000     0.267044     0.267044
Rotational constants in MHz :     0.000000  8005.762772  8005.762772

                             ****ORCA TERMINATED NORMALLY****
TOTAL RUN TIME: 0 days 0 hours 0 minutes 5 seconds 133 msec
