                         Program Version 4.2.0 -  RELEASE  -
|  1> #
|  2> # Ag01N0_H TPSSh-D3BJ/Def2-TZVPPD
|  3> #
|  4> ! tpssh d3bj def2-tzvppd def2/jk grid4 nofinalgrid
|  5>
|  6> *xyz 0 1
|  7> Ag       0.000000    0.000000    0.033547
|  8> H        0.000000    0.000000   -1.576706
|  9> *
| 10>
| 11> %maxcore 5000
| 12>
| 13> %pal
| 14> nprocs = 24
| 15> end
| 16>
| 17>
| 18>                          ****END OF INPUT****

CARTESIAN COORDINATES (ANGSTROEM)
---------------------------------
  Ag     0.000000    0.000000    0.033547
  H      0.000000    0.000000   -1.576706

 Total Charge           Charge          ....    0
 Multiplicity           Mult            ....    1
 Number of Electrons    NEL             ....   20
 Basis Dimension        Dim             ....   73

ORBITAL ENERGIES
----------------

  NO   OCC          E(Eh)            E(eV)
   0   2.0000      -3.682576      -100.2080
   1   2.0000      -2.292999       -62.3957
   2   2.0000      -2.284271       -62.1582
   3   2.0000      -2.284271       -62.1582
   4   2.0000      -0.364693        -9.9238
   5   2.0000      -0.313254        -8.5241
   6   2.0000      -0.313254        -8.5241
   7   2.0000      -0.304782        -8.2936
   8   2.0000      -0.304782        -8.2936
   9   2.0000      -0.228587        -6.2202
  10   0.0000      -0.087415        -2.3787
  11   0.0000      -0.008144        -0.2216
  12   0.0000      -0.008144        -0.2216
  13   0.0000       0.071036         1.9330
  14   0.0000       0.091974         2.5027

MULLIKEN ATOMIC CHARGES
-----------------------
   0 Ag:   -0.041779
   1 H :    0.041779
Sum of atomic charges:   -0.0000000

LOEWDIN ATOMIC CHARGES
----------------------
   0 Ag:    0.313540
   1 H :   -0.313540

  Mayer bond orders larger than 0.100000
B(  0-Ag,  1-H ) :   1.0424

Dispersion correction           -0.000469283
FINAL SINGLE POINT ENERGY      -147.504597037416

DIPOLE MOMENT
-------------
                                X             Y             Z
Electronic contribution:      0.00000       0.00000       3.59740
Nuclear contribution   :      0.00000       0.00000      -2.47950
                        -----------------------------------------
Total Dipole Moment    :      0.00000       0.00000       1.11790
                        -----------------------------------------
Magnitude (a.u.)       :      1.11790
Magnitude (Debye)      :      2.84147

Rotational constants in cm-1:     0.000000     6.510099     6.510099
Rotational constants in MHz :     0.000000 195167.857171 195167.857171

                             ****ORCA TERMINATED NORMALLY****
TOTAL RUN TIME: 0 days 0 hours 0 minutes 4 seconds 745 msec
