                         Program Version 4.2.0 -  RELEASE  -
|  1> #
|  2> # Ag02N0 TPSSh-D3BJ/Def2-TZVPPD
|  3> #
|  4> ! tpssh d3bj def2-tzvppd def2/jk grid4 nofinalgrid
|  5>
|  6> *xyz 0 1
|  7> Ag       0.000000    0.000000    1.261821
|  8> Ag       0.000000    0.000000   -1.261821
|  9> *
| 10>
| 11> %maxcore 5000
| 12>
| 13> %pal
| 14> nprocs = 24
| 15> end
| 16>
| 17>
| 18>                          ****END OF INPUT****

CARTESIAN COORDINATES (ANGSTROEM)
---------------------------------
  Ag     0.000000    0.000000    1.261821
  Ag     0.000000    0.000000   -1.261821

 Total Charge           Charge          ....    0
 Multiplicity           Mult            ....    1
 Number of Electrons    NEL             ....   38
 Basis Dimension        Dim             ....  112

ORBITAL ENERGIES
----------------

  NO   OCC          E(Eh)            E(eV)
   0   2.0000      -3.656999       -99.5120
   1   2.0000      -3.656346       -99.4942
   2   2.0000      -2.267953       -61.7141
   3   2.0000      -2.261045       -61.5261
   4   2.0000      -2.260840       -61.5206
   5   2.0000      -2.260840       -61.5206
   6   2.0000      -2.260198       -61.5031
   7   2.0000      -2.260198       -61.5031
   8   2.0000      -0.328271        -8.9327
   9   2.0000      -0.309538        -8.4230
  10   2.0000      -0.309538        -8.4230
  11   2.0000      -0.288246        -7.8436
  12   2.0000      -0.288241        -7.8434
  13   2.0000      -0.280222        -7.6252
  14   2.0000      -0.280217        -7.6251
  15   2.0000      -0.268994        -7.3197
  16   2.0000      -0.268994        -7.3197
  17   2.0000      -0.262457        -7.1418
  18   2.0000      -0.194670        -5.2972
  19   0.0000      -0.093998        -2.5578
  20   0.0000      -0.022322        -0.6074
  21   0.0000      -0.022322        -0.6074
  22   0.0000      -0.002939        -0.0800
  23   0.0000       0.040898         1.1129

MULLIKEN ATOMIC CHARGES
-----------------------
   0 Ag:    0.000001
   1 Ag:   -0.000001
Sum of atomic charges:   -0.0000000

LOEWDIN ATOMIC CHARGES
----------------------
   0 Ag:    0.000000
   1 Ag:   -0.000000

  Mayer bond orders larger than 0.100000
B(  0-Ag,  1-Ag) :   1.0621

Dispersion correction           -0.001858826
FINAL SINGLE POINT ENERGY      -293.887947853643

DIPOLE MOMENT
-------------
                                X             Y             Z
Electronic contribution:      0.00000      -0.00000       0.00000
Nuclear contribution   :      0.00000       0.00000       0.00000
                        -----------------------------------------
Total Dipole Moment    :      0.00000      -0.00000       0.00000
                        -----------------------------------------
Magnitude (a.u.)       :      0.00000
Magnitude (Debye)      :      0.00000

Rotational constants in cm-1:     0.000000     0.049076     0.049076
Rotational constants in MHz :     0.000000  1471.266775  1471.266775

                             ****ORCA TERMINATED NORMALLY****
TOTAL RUN TIME: 0 days 0 hours 0 minutes 5 seconds 285 msec
