                         Program Version 4.2.0 -  RELEASE  -
|  1> #
|  2> # Ag03N0_LIN TPSSh-D3BJ/Def2-TZVPPD
|  3> #
|  4> ! tpssh d3bj def2-tzvppd def2/jk grid4 nofinalgrid
|  5>
|  6> *xyz 0 2
|  7> Ag       0.000000    0.000000    0.000000
|  8> Ag       0.000000    0.000000    2.592532
|  9> Ag       0.000000    0.000000   -2.592532
| 10> *
| 11>
| 12> %maxcore 5000
| 13>
| 14> %pal
| 15> nprocs = 24
| 16> end
| 17>
| 18>
| 19>                          ****END OF INPUT****

CARTESIAN COORDINATES (ANGSTROEM)
---------------------------------
  Ag     0.000000    0.000000    0.000000
  Ag     0.000000    0.000000    2.592532
  Ag     0.000000    0.000000   -2.592532

 Total Charge           Charge          ....    0
 Multiplicity           Mult            ....    2
 Number of Electrons    NEL             ....   57
 Basis Dimension        Dim             ....  168

ORBITAL ENERGIES
----------------
                 SPIN UP ORBITALS
  NO   OCC          E(Eh)            E(eV)
   0   1.0000      -3.667331       -99.7931
   1   1.0000      -3.667323       -99.7929
   2   1.0000      -3.655151       -99.4617
   3   1.0000      -2.276149       -61.9372
   4   1.0000      -2.275045       -61.9071
   5   1.0000      -2.271322       -61.8058
   6   1.0000      -2.271322       -61.8058
   7   1.0000      -2.271314       -61.8056
   8   1.0000      -2.271314       -61.8056
   9   1.0000      -2.262387       -61.5627
  10   1.0000      -2.258031       -61.4441
  11   1.0000      -2.258031       -61.4441
  12   1.0000      -0.346876        -9.4390
  13   1.0000      -0.320624        -8.7246
  14   1.0000      -0.320624        -8.7246
  15   1.0000      -0.305848        -8.3225
  16   1.0000      -0.302755        -8.2384
  17   1.0000      -0.302755        -8.2384
  18   1.0000      -0.298789        -8.1305
  19   1.0000      -0.298785        -8.1304
  20   1.0000      -0.297517        -8.0958
  21   1.0000      -0.297513        -8.0957
  22   1.0000      -0.278838        -7.5876
  23   1.0000      -0.278834        -7.5875
  24   1.0000      -0.267684        -7.2840
  25   1.0000      -0.267684        -7.2840
  26   1.0000      -0.261888        -7.1263
  27   1.0000      -0.214374        -5.8334
  28   1.0000      -0.181579        -4.9410
  29   0.0000      -0.080400        -2.1878
  30   0.0000      -0.037612        -1.0235
  31   0.0000      -0.037612        -1.0235
  32   0.0000      -0.014010        -0.3812
  33   0.0000      -0.002819        -0.0767

                 SPIN DOWN ORBITALS
  NO   OCC          E(Eh)            E(eV)
   0   1.0000      -3.667315       -99.7927
   1   1.0000      -3.667307       -99.7925
   2   1.0000      -3.655338       -99.4668
   3   1.0000      -2.275790       -61.9274
   4   1.0000      -2.274688       -61.8974
   5   1.0000      -2.271581       -61.8129
   6   1.0000      -2.271581       -61.8129
   7   1.0000      -2.271570       -61.8126
   8   1.0000      -2.271570       -61.8126
   9   1.0000      -2.262290       -61.5601
  10   1.0000      -2.258396       -61.4541
  11   1.0000      -2.258396       -61.4541
  12   1.0000      -0.343206        -9.3391
  13   1.0000      -0.317328        -8.6349
  14   1.0000      -0.317328        -8.6349
  15   1.0000      -0.302291        -8.2257
  16   1.0000      -0.298693        -8.1278
  17   1.0000      -0.298693        -8.1278
  18   1.0000      -0.294629        -8.0173
  19   1.0000      -0.294625        -8.0172
  20   1.0000      -0.293049        -7.9743
  21   1.0000      -0.293045        -7.9742
  22   1.0000      -0.279110        -7.5950
  23   1.0000      -0.279106        -7.5949
  24   1.0000      -0.266674        -7.2566
  25   1.0000      -0.266674        -7.2566
  26   1.0000      -0.258482        -7.0336
  27   1.0000      -0.200311        -5.4507
  28   0.0000      -0.144787        -3.9399
  29   0.0000      -0.067093        -1.8257
  30   0.0000      -0.028076        -0.7640
  31   0.0000      -0.028076        -0.7640
  32   0.0000      -0.000517        -0.0141

MULLIKEN ATOMIC CHARGES AND SPIN POPULATIONS
--------------------------------------------
   0 Ag:   -0.034528   -0.099860
   1 Ag:    0.017266    0.549932
   2 Ag:    0.017262    0.549928
Sum of atomic charges         :   -0.0000000

LOEWDIN ATOMIC CHARGES AND SPIN POPULATIONS
-------------------------------------------
   0 Ag:   -0.183169    0.295034
   1 Ag:    0.091585    0.352483
   2 Ag:    0.091585    0.352483

  Mayer bond orders larger than 0.100000
B(  0-Ag,  1-Ag) :   0.5851 B(  0-Ag,  2-Ag) :   0.5851 B(  1-Ag,  2-Ag) :   0.2067

Dispersion correction           -0.004319753
FINAL SINGLE POINT ENERGY      -440.830193871558

DIPOLE MOMENT
-------------
                                X             Y             Z
Electronic contribution:     -0.00000       0.00000      -0.00000
Nuclear contribution   :      0.00000       0.00000       0.00000
                        -----------------------------------------
Total Dipole Moment    :     -0.00000       0.00000      -0.00000
                        -----------------------------------------
Magnitude (a.u.)       :      0.00000
Magnitude (Debye)      :      0.00000

Rotational constants in cm-1:     0.000000     0.011626     0.011626
Rotational constants in MHz :     0.000000   348.528806   348.528806

                             ****ORCA TERMINATED NORMALLY****
TOTAL RUN TIME: 0 days 0 hours 0 minutes 7 seconds 456 msec
