                         Program Version 4.2.0 -  RELEASE  -
|  1> #
|  2> # Ag03C1_LIN TPSSh-D3BJ/Def2-TZVPPD
|  3> #
|  4> ! tpssh d3bj def2-tzvppd def2/jk grid4 nofinalgrid
|  5>
|  6> *xyz 1 1
|  7> Ag       0.000000    0.000000    0.000000
|  8> Ag       0.000000    0.000000    2.629319
|  9> Ag       0.000000    0.000000   -2.629319
| 10> *
| 11>
| 12> %maxcore 5000
| 13>
| 14> %pal
| 15> nprocs = 24
| 16> end
| 17>
| 18>
| 19>                          ****END OF INPUT****

CARTESIAN COORDINATES (ANGSTROEM)
---------------------------------
  Ag     0.000000    0.000000    0.000000
  Ag     0.000000    0.000000    2.629319
  Ag     0.000000    0.000000   -2.629319

 Total Charge           Charge          ....    1
 Multiplicity           Mult            ....    1
 Number of Electrons    NEL             ....   56
 Basis Dimension        Dim             ....  168

ORBITAL ENERGIES
----------------

  NO   OCC          E(Eh)            E(eV)
   0   2.0000      -3.864248      -105.1515
   1   2.0000      -3.864247      -105.1515
   2   2.0000      -3.831628      -104.2639
   3   2.0000      -2.472654       -67.2843
   4   2.0000      -2.472326       -67.2754
   5   2.0000      -2.469596       -67.2011
   6   2.0000      -2.469596       -67.2011
   7   2.0000      -2.469590       -67.2010
   8   2.0000      -2.469590       -67.2010
   9   2.0000      -2.441325       -66.4318
  10   2.0000      -2.434054       -66.2340
  11   2.0000      -2.434054       -66.2340
  12   2.0000      -0.533045       -14.5049
  13   2.0000      -0.508477       -13.8364
  14   2.0000      -0.508477       -13.8364
  15   2.0000      -0.500871       -13.6294
  16   2.0000      -0.497483       -13.5372
  17   2.0000      -0.497483       -13.5372
  18   2.0000      -0.493337       -13.4244
  19   2.0000      -0.493334       -13.4243
  20   2.0000      -0.492890       -13.4122
  21   2.0000      -0.492887       -13.4121
  22   2.0000      -0.454989       -12.3809
  23   2.0000      -0.454986       -12.3808
  24   2.0000      -0.453093       -12.3293
  25   2.0000      -0.453093       -12.3293
  26   2.0000      -0.448124       -12.1941
  27   2.0000      -0.377463       -10.2713
  28   0.0000      -0.327749        -8.9185
  29   0.0000      -0.234541        -6.3822
  30   0.0000      -0.184322        -5.0157
  31   0.0000      -0.184322        -5.0157
  32   0.0000      -0.161125        -4.3844

MULLIKEN ATOMIC CHARGES
-----------------------
   0 Ag:   -0.067366
   1 Ag:    0.533676
   2 Ag:    0.533690
Sum of atomic charges:    1.0000000

LOEWDIN ATOMIC CHARGES
----------------------
   0 Ag:    0.137081
   1 Ag:    0.431459
   2 Ag:    0.431460

  Mayer bond orders larger than 0.100000
B(  0-Ag,  1-Ag) :   0.5901 B(  0-Ag,  2-Ag) :   0.5901 B(  1-Ag,  2-Ag) :   0.2735

Dispersion correction           -0.004275499
FINAL SINGLE POINT ENERGY      -440.576467060109

DIPOLE MOMENT
-------------
                                X             Y             Z
Electronic contribution:      0.00000      -0.00000      -0.00000
Nuclear contribution   :      0.00000       0.00000       0.00000
                        -----------------------------------------
Total Dipole Moment    :      0.00000      -0.00000      -0.00000
                        -----------------------------------------
Magnitude (a.u.)       :      0.00000
Magnitude (Debye)      :      0.00001

Rotational constants in cm-1:     0.000000     0.011303     0.011303
Rotational constants in MHz :     0.000000   338.844445   338.844445

                             ****ORCA TERMINATED NORMALLY****
TOTAL RUN TIME: 0 days 0 hours 0 minutes 7 seconds 40 msec
