                         Program Version 4.2.0 -  RELEASE  -
|  1> #
|  2> # Ag03C1_D3H TPSSh-D3BJ/Def2-TZVPPD
|  3> #
|  4> ! tpssh d3bj def2-tzvppd def2/jk grid4 nofinalgrid
|  5>
|  6> *xyz 1 1
|  7> Ag       0.000000    1.529877    0.000000
|  8> Ag       1.324912   -0.764938    0.000000
|  9> Ag      -1.324912   -0.764938    0.000000
| 10> *
| 11>
| 12> %maxcore 5000
| 13>
| 14> %pal
| 15> nprocs = 24
| 16> end
| 17>
| 18>
| 19>                          ****END OF INPUT****

CARTESIAN COORDINATES (ANGSTROEM)
---------------------------------
  Ag     0.000000    1.529877    0.000000
  Ag     1.324912   -0.764938    0.000000
  Ag    -1.324912   -0.764938    0.000000

 Total Charge           Charge          ....    1
 Multiplicity           Mult            ....    1
 Number of Electrons    NEL             ....   56
 Basis Dimension        Dim             ....  168

ORBITAL ENERGIES
----------------

  NO   OCC          E(Eh)            E(eV)
   0   2.0000      -3.864117      -105.1480
   1   2.0000      -3.863605      -105.1340
   2   2.0000      -3.863602      -105.1340
   3   2.0000      -2.474384       -67.3314
   4   2.0000      -2.471448       -67.2515
   5   2.0000      -2.471443       -67.2514
   6   2.0000      -2.468478       -67.1707
   7   2.0000      -2.468469       -67.1705
   8   2.0000      -2.468402       -67.1686
   9   2.0000      -2.467168       -67.1351
  10   2.0000      -2.466619       -67.1201
  11   2.0000      -2.466616       -67.1200
  12   2.0000      -0.543992       -14.8028
  13   2.0000      -0.525188       -14.2911
  14   2.0000      -0.525184       -14.2910
  15   2.0000      -0.519603       -14.1391
  16   2.0000      -0.505372       -13.7519
  17   2.0000      -0.501572       -13.6485
  18   2.0000      -0.501564       -13.6482
  19   2.0000      -0.483026       -13.1438
  20   2.0000      -0.483025       -13.1438
  21   2.0000      -0.479087       -13.0366
  22   2.0000      -0.476419       -12.9640
  23   2.0000      -0.476394       -12.9633
  24   2.0000      -0.475690       -12.9442
  25   2.0000      -0.475676       -12.9438
  26   2.0000      -0.459363       -12.4999
  27   2.0000      -0.416252       -11.3268
  28   0.0000      -0.275633        -7.5004
  29   0.0000      -0.275632        -7.5003
  30   0.0000      -0.202173        -5.5014
  31   0.0000      -0.171338        -4.6623
  32   0.0000      -0.157896        -4.2966

MULLIKEN ATOMIC CHARGES
-----------------------
   0 Ag:    0.333346
   1 Ag:    0.333326
   2 Ag:    0.333328
Sum of atomic charges:    1.0000000

LOEWDIN ATOMIC CHARGES
----------------------
   0 Ag:    0.333341
   1 Ag:    0.333330
   2 Ag:    0.333330

  Mayer bond orders larger than 0.100000
B(  0-Ag,  1-Ag) :   0.5637 B(  0-Ag,  2-Ag) :   0.5637 B(  1-Ag,  2-Ag) :   0.5636

Dispersion correction           -0.005491271
FINAL SINGLE POINT ENERGY      -440.628781142909

DIPOLE MOMENT
-------------
                                X             Y             Z
Electronic contribution:     -0.00000       0.00001      -0.00000
Nuclear contribution   :      0.00000       0.00000       0.00000
                        -----------------------------------------
Total Dipole Moment    :     -0.00000       0.00001      -0.00000
                        -----------------------------------------
Magnitude (a.u.)       :      0.00001
Magnitude (Debye)      :      0.00001

Rotational constants in cm-1:     0.044514     0.044514     0.022257
Rotational constants in MHz :  1334.482437  1334.482320   667.241189

                             ****ORCA TERMINATED NORMALLY****
TOTAL RUN TIME: 0 days 0 hours 0 minutes 7 seconds 488 msec
