                         Program Version 4.2.0 -  RELEASE  -
|  1> #
|  2> # Ag03N0_D3H TPSSh-D3BJ/Def2-TZVPPD
|  3> #
|  4> ! tpssh d3bj def2-tzvppd def2/jk grid4 nofinalgrid
|  5>
|  6> *xyz 0 2
|  7> Ag       0.000000    1.533951   -0.000000
|  8> Ag       1.328441   -0.766976    0.000000
|  9> Ag      -1.328441   -0.766976   -0.000000
| 10> *
| 11>
| 12> %maxcore 5000
| 13>
| 14> %pal
| 15> nprocs = 24
| 16> end
| 17>
| 18>
| 19>                          ****END OF INPUT****

CARTESIAN COORDINATES (ANGSTROEM)
---------------------------------
  Ag     0.000000    1.533951   -0.000000
  Ag     1.328441   -0.766976    0.000000
  Ag    -1.328441   -0.766976   -0.000000

 Total Charge           Charge          ....    0
 Multiplicity           Mult            ....    2
 Number of Electrons    NEL             ....   57
 Basis Dimension        Dim             ....  168

ORBITAL ENERGIES
----------------
                 SPIN UP ORBITALS
  NO   OCC          E(Eh)            E(eV)
   0   1.0000      -3.677311      -100.0647
   1   1.0000      -3.676979      -100.0557
   2   1.0000      -3.659052       -99.5679
   3   1.0000      -2.286492       -62.2186
   4   1.0000      -2.282734       -62.1164
   5   1.0000      -2.282099       -62.0991
   6   1.0000      -2.281253       -62.0761
   7   1.0000      -2.280855       -62.0652
   8   1.0000      -2.280496       -62.0555
   9   1.0000      -2.264819       -61.6289
  10   1.0000      -2.264152       -61.6107
  11   1.0000      -2.260991       -61.5247
  12   1.0000      -0.352825        -9.6009
  13   1.0000      -0.337098        -9.1729
  14   1.0000      -0.329864        -8.9761
  15   1.0000      -0.329350        -8.9621
  16   1.0000      -0.315580        -8.5874
  17   1.0000      -0.313870        -8.5408
  18   1.0000      -0.308965        -8.4074
  19   1.0000      -0.296087        -8.0569
  20   1.0000      -0.292384        -7.9562
  21   1.0000      -0.290489        -7.9046
  22   1.0000      -0.283219        -7.7068
  23   1.0000      -0.281131        -7.6500
  24   1.0000      -0.278615        -7.5815
  25   1.0000      -0.278313        -7.5733
  26   1.0000      -0.266890        -7.2624
  27   1.0000      -0.240076        -6.5328
  28   1.0000      -0.132858        -3.6153
  29   0.0000      -0.116133        -3.1601
  30   0.0000      -0.046670        -1.2699
  31   0.0000      -0.026979        -0.7341
  32   0.0000      -0.010695        -0.2910
  33   0.0000      -0.010390        -0.2827

                 SPIN DOWN ORBITALS
  NO   OCC          E(Eh)            E(eV)
   0   1.0000      -3.677073      -100.0583
   1   1.0000      -3.676743      -100.0493
   2   1.0000      -3.658688       -99.5580
   3   1.0000      -2.286159       -62.2095
   4   1.0000      -2.282619       -62.1132
   5   1.0000      -2.281730       -62.0890
   6   1.0000      -2.280842       -62.0649
   7   1.0000      -2.280685       -62.0606
   8   1.0000      -2.280487       -62.0552
   9   1.0000      -2.264762       -61.6273
  10   1.0000      -2.263625       -61.5964
  11   1.0000      -2.260653       -61.5155
  12   1.0000      -0.351060        -9.5528
  13   1.0000      -0.334756        -9.1092
  14   1.0000      -0.328563        -8.9407
  15   1.0000      -0.325854        -8.8669
  16   1.0000      -0.313007        -8.5174
  17   1.0000      -0.312094        -8.4925
  18   1.0000      -0.306883        -8.3507
  19   1.0000      -0.295041        -8.0285
  20   1.0000      -0.291903        -7.9431
  21   1.0000      -0.289440        -7.8761
  22   1.0000      -0.279511        -7.6059
  23   1.0000      -0.277682        -7.5561
  24   1.0000      -0.274506        -7.4697
  25   1.0000      -0.273848        -7.4518
  26   1.0000      -0.262674        -7.1477
  27   1.0000      -0.230160        -6.2630
  28   0.0000      -0.108887        -2.9630
  29   0.0000      -0.091196        -2.4816
  30   0.0000      -0.039354        -1.0709
  31   0.0000      -0.016073        -0.4374
  32   0.0000       0.004366         0.1188

MULLIKEN ATOMIC CHARGES AND SPIN POPULATIONS
--------------------------------------------
   0 Ag:   -0.104956    0.572088
   1 Ag:    0.052484    0.213947
   2 Ag:    0.052472    0.213966
Sum of atomic charges         :   -0.0000000

LOEWDIN ATOMIC CHARGES AND SPIN POPULATIONS
-------------------------------------------
   0 Ag:   -0.078455    0.476726
   1 Ag:    0.039231    0.261631
   2 Ag:    0.039224    0.261643

  Mayer bond orders larger than 0.100000
B(  0-Ag,  1-Ag) :   0.5796 B(  0-Ag,  2-Ag) :   0.5796 B(  1-Ag,  2-Ag) :   0.7537

Dispersion correction           -0.005489697
FINAL SINGLE POINT ENERGY      -440.832315342327

DIPOLE MOMENT
-------------
                                X             Y             Z
Electronic contribution:      0.00002      -0.46606      -0.00000
Nuclear contribution   :      0.00000       0.00000       0.00000
                        -----------------------------------------
Total Dipole Moment    :      0.00002      -0.46606      -0.00000
                        -----------------------------------------
Magnitude (a.u.)       :      0.46606
Magnitude (Debye)      :      1.18463

Rotational constants in cm-1:     0.044277     0.044277     0.022139
Rotational constants in MHz :  1327.402110  1327.401756   663.700966

                             ****ORCA TERMINATED NORMALLY****
TOTAL RUN TIME: 0 days 0 hours 0 minutes 7 seconds 561 msec
