                         Program Version 4.2.0 -  RELEASE  -
|  1> #
|  2> # Ag04C2_H_E TPSSh-D3BJ/Def2-TZVPPD
|  3> #
|  4> ! tpssh d3bj def2-tzvppd def2/jk grid4 nofinalgrid
|  5>
|  6> *xyz 2 2
|  7> Ag      -0.000000    1.374598    1.108828
|  8> Ag      -0.000000   -1.374598    1.108828
|  9> Ag      -1.374988    0.000000   -1.132689
| 10> Ag       1.374988   -0.000000   -1.132689
| 11> H        0.000000    0.000000    2.242952
| 12> *
| 13>
| 14> %maxcore 5000
| 15>
| 16> %pal
| 17> nprocs = 24
| 18> end
| 19>
| 20>
| 21>                          ****END OF INPUT****

CARTESIAN COORDINATES (ANGSTROEM)
---------------------------------
  Ag    -0.000000    1.374598    1.108828
  Ag    -0.000000   -1.374598    1.108828
  Ag    -1.374988    0.000000   -1.132689
  Ag     1.374988   -0.000000   -1.132689
  H      0.000000    0.000000    2.242952

 Total Charge           Charge          ....    2
 Multiplicity           Mult            ....    2
 Number of Electrons    NEL             ....   75
 Basis Dimension        Dim             ....  241

ORBITAL ENERGIES
----------------
                 SPIN UP ORBITALS
  NO   OCC          E(Eh)            E(eV)
   0   1.0000      -4.062874      -110.5564
   1   1.0000      -4.062665      -110.5507
   2   1.0000      -4.041899      -109.9857
   3   1.0000      -4.041693      -109.9800
   4   1.0000      -2.673467       -72.7487
   5   1.0000      -2.671366       -72.6916
   6   1.0000      -2.667762       -72.5935
   7   1.0000      -2.666706       -72.5647
   8   1.0000      -2.663866       -72.4875
   9   1.0000      -2.663617       -72.4807
  10   1.0000      -2.650106       -72.1130
  11   1.0000      -2.647607       -72.0451
  12   1.0000      -2.647054       -72.0300
  13   1.0000      -2.646620       -72.0182
  14   1.0000      -2.646527       -72.0157
  15   1.0000      -2.646391       -72.0120
  16   1.0000      -0.783591       -21.3226
  17   1.0000      -0.728099       -19.8126
  18   1.0000      -0.708154       -19.2698
  19   1.0000      -0.708049       -19.2670
  20   1.0000      -0.702760       -19.1231
  21   1.0000      -0.696480       -18.9522
  22   1.0000      -0.694395       -18.8954
  23   1.0000      -0.694102       -18.8875
  24   1.0000      -0.687451       -18.7065
  25   1.0000      -0.677250       -18.4289
  26   1.0000      -0.675338       -18.3769
  27   1.0000      -0.674383       -18.3509
  28   1.0000      -0.673283       -18.3210
  29   1.0000      -0.671623       -18.2758
  30   1.0000      -0.665555       -18.1107
  31   1.0000      -0.660196       -17.9648
  32   1.0000      -0.659690       -17.9511
  33   1.0000      -0.658070       -17.9070
  34   1.0000      -0.654904       -17.8208
  35   1.0000      -0.648167       -17.6375
  36   1.0000      -0.642683       -17.4883
  37   1.0000      -0.553919       -15.0729
  38   0.0000      -0.453377       -12.3370
  39   0.0000      -0.446586       -12.1522
  40   0.0000      -0.397348       -10.8124
  41   0.0000      -0.337308        -9.1786
  42   0.0000      -0.335066        -9.1176

                 SPIN DOWN ORBITALS
  NO   OCC          E(Eh)            E(eV)
   0   1.0000      -4.059190      -110.4562
   1   1.0000      -4.058983      -110.4506
   2   1.0000      -4.041604      -109.9776
   3   1.0000      -4.041399      -109.9721
   4   1.0000      -2.666896       -72.5699
   5   1.0000      -2.664479       -72.5042
   6   1.0000      -2.663995       -72.4910
   7   1.0000      -2.663269       -72.4712
   8   1.0000      -2.662650       -72.4544
   9   1.0000      -2.662403       -72.4477
  10   1.0000      -2.649146       -72.0869
  11   1.0000      -2.647354       -72.0382
  12   1.0000      -2.647022       -72.0291
  13   1.0000      -2.646704       -72.0205
  14   1.0000      -2.646495       -72.0148
  15   1.0000      -2.645871       -71.9978
  16   1.0000      -0.758214       -20.6321
  17   1.0000      -0.724967       -19.7274
  18   1.0000      -0.706273       -19.2187
  19   1.0000      -0.704628       -19.1739
  20   1.0000      -0.698744       -19.0138
  21   1.0000      -0.692877       -18.8541
  22   1.0000      -0.691901       -18.8276
  23   1.0000      -0.691660       -18.8210
  24   1.0000      -0.680068       -18.5056
  25   1.0000      -0.674288       -18.3483
  26   1.0000      -0.674034       -18.3414
  27   1.0000      -0.671315       -18.2674
  28   1.0000      -0.669991       -18.2314
  29   1.0000      -0.668446       -18.1894
  30   1.0000      -0.663158       -18.0454
  31   1.0000      -0.658413       -17.9163
  32   1.0000      -0.656683       -17.8693
  33   1.0000      -0.654614       -17.8129
  34   1.0000      -0.653256       -17.7760
  35   1.0000      -0.645694       -17.5702
  36   1.0000      -0.630325       -17.1520
  37   0.0000      -0.509008       -13.8508
  38   0.0000      -0.447865       -12.1870
  39   0.0000      -0.441207       -12.0059
  40   0.0000      -0.380444       -10.3524
  41   0.0000      -0.332921        -9.0593

MULLIKEN ATOMIC CHARGES AND SPIN POPULATIONS
--------------------------------------------
   0 Ag:    0.414125    0.117517
   1 Ag:    0.414123    0.117515
   2 Ag:    0.503611    0.224630
   3 Ag:    0.503610    0.224630
   4 H :    0.164530    0.315708
Sum of atomic charges         :    2.0000000

LOEWDIN ATOMIC CHARGES AND SPIN POPULATIONS
-------------------------------------------
   0 Ag:    0.555526    0.218518
   1 Ag:    0.555526    0.218518
   2 Ag:    0.510073    0.174117
   3 Ag:    0.510073    0.174117
   4 H :   -0.131198    0.214731

  Mayer bond orders larger than 0.100000
B(  0-Ag,  1-Ag) :   0.5056 B(  0-Ag,  2-Ag) :   0.2889 B(  0-Ag,  3-Ag) :   0.2889
B(  0-Ag,  4-H ) :   0.3960 B(  1-Ag,  2-Ag) :   0.2889 B(  1-Ag,  3-Ag) :   0.2889
B(  1-Ag,  4-H ) :   0.3960 B(  2-Ag,  3-Ag) :   0.4371

Dispersion correction           -0.012297535
FINAL SINGLE POINT ENERGY      -587.743740079822

DIPOLE MOMENT
-------------
                                X             Y             Z
Electronic contribution:     -0.00000      -0.00000      -3.64570
Nuclear contribution   :      0.00000       0.00000       3.49639
                        -----------------------------------------
Total Dipole Moment    :     -0.00000      -0.00000      -0.14931
                        -----------------------------------------
Magnitude (a.u.)       :      0.14931
Magnitude (Debye)      :      0.37951

Rotational constants in cm-1:     0.020671     0.017657     0.017653
Rotational constants in MHz :   619.701148   529.337252   529.209018

                             ****ORCA TERMINATED NORMALLY****
TOTAL RUN TIME: 0 days 0 hours 0 minutes 13 seconds 1 msec
