                         Program Version 4.2.0 -  RELEASE  -
|  1> #
|  2> # Ag04C2_H_A TPSSh-D3BJ/Def2-TZVPPD
|  3> #
|  4> ! tpssh d3bj def2-tzvppd def2/jk grid4 nofinalgrid
|  5>
|  6> *xyz 2 2
|  7> Ag       0.000000    0.000000    1.733523
|  8> Ag       0.000000    1.616553   -0.602470
|  9> Ag      -1.399976   -0.808277   -0.602470
| 10> Ag       1.399976   -0.808277   -0.602470
| 11> H        0.000000    0.000000    3.472645
| 12> *
| 13>
| 14> %maxcore 5000
| 15>
| 16> %pal
| 17> nprocs = 24
| 18> end
| 19>
| 20>
| 21>                          ****END OF INPUT****

CARTESIAN COORDINATES (ANGSTROEM)
---------------------------------
  Ag     0.000000    0.000000    1.733523
  Ag     0.000000    1.616553   -0.602470
  Ag    -1.399976   -0.808277   -0.602470
  Ag     1.399976   -0.808277   -0.602470
  H      0.000000    0.000000    3.472645

 Total Charge           Charge          ....    2
 Multiplicity           Mult            ....    2
 Number of Electrons    NEL             ....   75
 Basis Dimension        Dim             ....  241

ORBITAL ENERGIES
----------------
                 SPIN UP ORBITALS
  NO   OCC          E(Eh)            E(eV)
   0   1.0000      -4.062990      -110.5596
   1   1.0000      -4.045718      -110.0896
   2   1.0000      -4.045482      -110.0832
   3   1.0000      -4.045479      -110.0831
   4   1.0000      -2.674985       -72.7900
   5   1.0000      -2.663506       -72.4777
   6   1.0000      -2.663504       -72.4776
   7   1.0000      -2.654097       -72.2217
   8   1.0000      -2.652073       -72.1666
   9   1.0000      -2.652073       -72.1666
  10   1.0000      -2.650605       -72.1266
  11   1.0000      -2.650569       -72.1257
  12   1.0000      -2.650566       -72.1256
  13   1.0000      -2.649912       -72.1078
  14   1.0000      -2.649911       -72.1077
  15   1.0000      -2.649654       -72.1007
  16   1.0000      -0.765865       -20.8403
  17   1.0000      -0.712850       -19.3976
  18   1.0000      -0.709666       -19.3110
  19   1.0000      -0.709646       -19.3104
  20   1.0000      -0.698898       -19.0180
  21   1.0000      -0.698891       -19.0178
  22   1.0000      -0.697407       -18.9774
  23   1.0000      -0.687171       -18.6989
  24   1.0000      -0.687162       -18.6986
  25   1.0000      -0.683353       -18.5950
  26   1.0000      -0.670574       -18.2473
  27   1.0000      -0.670569       -18.2471
  28   1.0000      -0.664040       -18.0694
  29   1.0000      -0.663267       -18.0484
  30   1.0000      -0.663256       -18.0481
  31   1.0000      -0.661554       -18.0018
  32   1.0000      -0.661535       -18.0013
  33   1.0000      -0.652029       -17.7426
  34   1.0000      -0.652026       -17.7425
  35   1.0000      -0.645749       -17.5717
  36   1.0000      -0.626306       -17.0426
  37   1.0000      -0.606524       -16.5044
  38   0.0000      -0.448140       -12.1945
  39   0.0000      -0.448138       -12.1945
  40   0.0000      -0.415771       -11.3137
  41   0.0000      -0.327049        -8.8995
  42   0.0000      -0.323198        -8.7947

                 SPIN DOWN ORBITALS
  NO   OCC          E(Eh)            E(eV)
   0   1.0000      -4.059373      -110.4611
   1   1.0000      -4.045577      -110.0857
   2   1.0000      -4.045341      -110.0793
   3   1.0000      -4.045338      -110.0792
   4   1.0000      -2.666160       -72.5499
   5   1.0000      -2.662484       -72.4499
   6   1.0000      -2.662483       -72.4499
   7   1.0000      -2.653682       -72.2104
   8   1.0000      -2.651835       -72.1601
   9   1.0000      -2.651834       -72.1601
  10   1.0000      -2.650549       -72.1251
  11   1.0000      -2.650546       -72.1250
  12   1.0000      -2.650496       -72.1237
  13   1.0000      -2.649738       -72.1030
  14   1.0000      -2.649736       -72.1030
  15   1.0000      -2.649690       -72.1017
  16   1.0000      -0.738095       -20.0846
  17   1.0000      -0.708144       -19.2696
  18   1.0000      -0.708125       -19.2691
  19   1.0000      -0.706573       -19.2268
  20   1.0000      -0.697697       -18.9853
  21   1.0000      -0.697690       -18.9851
  22   1.0000      -0.684608       -18.6291
  23   1.0000      -0.684598       -18.6289
  24   1.0000      -0.682713       -18.5776
  25   1.0000      -0.682126       -18.5616
  26   1.0000      -0.668392       -18.1879
  27   1.0000      -0.668388       -18.1878
  28   1.0000      -0.663726       -18.0609
  29   1.0000      -0.662952       -18.0398
  30   1.0000      -0.662939       -18.0395
  31   1.0000      -0.661163       -17.9912
  32   1.0000      -0.661143       -17.9906
  33   1.0000      -0.650608       -17.7040
  34   1.0000      -0.650604       -17.7038
  35   1.0000      -0.645743       -17.5716
  36   1.0000      -0.614673       -16.7261
  37   0.0000      -0.511739       -13.9251
  38   0.0000      -0.446726       -12.1560
  39   0.0000      -0.446724       -12.1560
  40   0.0000      -0.396558       -10.7909
  41   0.0000      -0.325862        -8.8672

MULLIKEN ATOMIC CHARGES AND SPIN POPULATIONS
--------------------------------------------
   0 Ag:    0.360338    0.275172
   1 Ag:    0.478936    0.029459
   2 Ag:    0.478911    0.029460
   3 Ag:    0.478914    0.029459
   4 H :    0.202901    0.636449
Sum of atomic charges         :    2.0000000

LOEWDIN ATOMIC CHARGES AND SPIN POPULATIONS
-------------------------------------------
   0 Ag:    0.429344    0.350505
   1 Ag:    0.500391    0.024584
   2 Ag:    0.500371    0.024585
   3 Ag:    0.500371    0.024585
   4 H :    0.069522    0.575741

  Mayer bond orders larger than 0.100000
B(  0-Ag,  1-Ag) :   0.3379 B(  0-Ag,  2-Ag) :   0.3379 B(  0-Ag,  3-Ag) :   0.3379
B(  0-Ag,  4-H ) :   0.5334 B(  1-Ag,  2-Ag) :   0.3986 B(  1-Ag,  3-Ag) :   0.3986
B(  2-Ag,  3-Ag) :   0.3985

Dispersion correction           -0.011757660
FINAL SINGLE POINT ENERGY      -587.727064752562

DIPOLE MOMENT
-------------
                                X             Y             Z
Electronic contribution:      0.00000       0.00003      -5.33220
Nuclear contribution   :      0.00000       0.00000       5.41329
                        -----------------------------------------
Total Dipole Moment    :      0.00000       0.00003       0.08108
                        -----------------------------------------
Magnitude (a.u.)       :      0.08108
Magnitude (Debye)      :      0.20609

Rotational constants in cm-1:     0.019934     0.019231     0.019231
Rotational constants in MHz :   597.606998   576.544336   576.544235

                             ****ORCA TERMINATED NORMALLY****
TOTAL RUN TIME: 0 days 0 hours 0 minutes 15 seconds 552 msec
