                         Program Version 4.2.0 -  RELEASE  -
|  1> #
|  2> # Ag04C2_NH3_A TPSSh-D3BJ/Def2-TZVPPD
|  3> #
|  4> ! tpssh d3bj def2-tzvppd def2/jk grid4 nofinalgrid
|  5>
|  6> *xyz 2 1
|  7> Ag      -0.268639    1.507918    0.000000
|  8> Ag       1.705052   -0.492854   -0.000000
|  9> Ag      -0.647170   -0.911099    1.379441
| 10> Ag      -0.647170   -0.911099   -1.379441
| 11> N       -0.647170    3.675657    0.000000
| 12> H       -0.250844    4.149729    0.817426
| 13> H       -0.250844    4.149729   -0.817426
| 14> H       -1.645581    3.906275    0.000000
| 15> *
| 16>
| 17> %maxcore 5000
| 18>
| 19> %pal
| 20> nprocs = 24
| 21> end
| 22>
| 23>
| 24>                          ****END OF INPUT****

CARTESIAN COORDINATES (ANGSTROEM)
---------------------------------
  Ag    -0.268639    1.507918    0.000000
  Ag     1.705052   -0.492854   -0.000000
  Ag    -0.647170   -0.911099    1.379441
  Ag    -0.647170   -0.911099   -1.379441
  N     -0.647170    3.675657    0.000000
  H     -0.250844    4.149729    0.817426
  H     -0.250844    4.149729   -0.817426
  H     -1.645581    3.906275    0.000000

 Total Charge           Charge          ....    2
 Multiplicity           Mult            ....    1
 Number of Electrons    NEL             ....   84
 Basis Dimension        Dim             ....  312

ORBITAL ENERGIES
----------------

  NO   OCC          E(Eh)            E(eV)
   0   2.0000     -14.573689      -396.5702
   1   2.0000      -4.016531      -109.2954
   2   2.0000      -4.016236      -109.2873
   3   2.0000      -4.016235      -109.2873
   4   2.0000      -4.003685      -108.9458
   5   2.0000      -2.625168       -71.4345
   6   2.0000      -2.622877       -71.3721
   7   2.0000      -2.622874       -71.3720
   8   2.0000      -2.621280       -71.3287
   9   2.0000      -2.621272       -71.3284
  10   2.0000      -2.621267       -71.3283
  11   2.0000      -2.620524       -71.3081
  12   2.0000      -2.620506       -71.3076
  13   2.0000      -2.620503       -71.3075
  14   2.0000      -2.609193       -70.9998
  15   2.0000      -2.607558       -70.9553
  16   2.0000      -2.607557       -70.9552
  17   2.0000      -1.161442       -31.6045
  18   2.0000      -0.765912       -20.8415
  19   2.0000      -0.765908       -20.8414
  20   2.0000      -0.708402       -19.2766
  21   2.0000      -0.681312       -18.5394
  22   2.0000      -0.673211       -18.3190
  23   2.0000      -0.673198       -18.3187
  24   2.0000      -0.663288       -18.0490
  25   2.0000      -0.663287       -18.0490
  26   2.0000      -0.661757       -18.0073
  27   2.0000      -0.654975       -17.8228
  28   2.0000      -0.649535       -17.6748
  29   2.0000      -0.649534       -17.6747
  30   2.0000      -0.634069       -17.2539
  31   2.0000      -0.633200       -17.2303
  32   2.0000      -0.633187       -17.2299
  33   2.0000      -0.631515       -17.1844
  34   2.0000      -0.631505       -17.1841
  35   2.0000      -0.623638       -16.9701
  36   2.0000      -0.623626       -16.9697
  37   2.0000      -0.615189       -16.7401
  38   2.0000      -0.609099       -16.5744
  39   2.0000      -0.609099       -16.5744
  40   2.0000      -0.587374       -15.9833
  41   2.0000      -0.575637       -15.6639
  42   0.0000      -0.420610       -11.4454
  43   0.0000      -0.420601       -11.4451
  44   0.0000      -0.392408       -10.6780
  45   0.0000      -0.304542        -8.2870
  46   0.0000      -0.295525        -8.0416

MULLIKEN ATOMIC CHARGES
-----------------------
   0 Ag:    0.420079
   1 Ag:    0.361721
   2 Ag:    0.360609
   3 Ag:    0.360613
   4 N :   -0.175509
   5 H :    0.224083
   6 H :    0.224083
   7 H :    0.224321
Sum of atomic charges:    2.0000000

LOEWDIN ATOMIC CHARGES
----------------------
   0 Ag:    0.420522
   1 Ag:    0.469981
   2 Ag:    0.469984
   3 Ag:    0.469984
   4 N :    0.403648
   5 H :   -0.078048
   6 H :   -0.078048
   7 H :   -0.078023

  Mayer bond orders larger than 0.100000
B(  0-Ag,  1-Ag) :   0.2404 B(  0-Ag,  2-Ag) :   0.2406 B(  0-Ag,  3-Ag) :   0.2406
B(  0-Ag,  4-N ) :   0.5009 B(  1-Ag,  2-Ag) :   0.5078 B(  1-Ag,  3-Ag) :   0.5078
B(  2-Ag,  3-Ag) :   0.5085 B(  4-N ,  5-H ) :   0.9782 B(  4-N ,  6-H ) :   0.9782
B(  4-N ,  7-H ) :   0.9780

Dispersion correction           -0.014778699
FINAL SINGLE POINT ENERGY      -643.866999800303

DIPOLE MOMENT
-------------
                                X             Y             Z
Electronic contribution:      8.67551     -49.27965       0.00000
Nuclear contribution   :     -9.00166      51.14183       0.00000
                        -----------------------------------------
Total Dipole Moment    :     -0.32615       1.86219       0.00000
                        -----------------------------------------
Magnitude (a.u.)       :      1.89053
Magnitude (Debye)      :      4.80536

Rotational constants in cm-1:     0.020466     0.015199     0.015198
Rotational constants in MHz :   613.555994   455.656791   455.636329

                             ****ORCA TERMINATED NORMALLY****
TOTAL RUN TIME: 0 days 0 hours 0 minutes 16 seconds 491 msec
