                         Program Version 4.2.0 -  RELEASE  -
|  1> #
|  2> # Ag04C2_H_F TPSSh-D3BJ/Def2-TZVPPD
|  3> #
|  4> ! tpssh d3bj def2-tzvppd def2/jk grid4 nofinalgrid
|  5>
|  6> *xyz 2 2
|  7> Ag       0.000000    1.604405   -0.611776
|  8> Ag       1.389456   -0.802203   -0.611776
|  9> Ag      -1.389456   -0.802203   -0.611776
| 10> Ag       0.000000    0.000000    1.871824
| 11> H        0.000000    0.000000   -1.715373
| 12> *
| 13>
| 14> %maxcore 5000
| 15>
| 16> %pal
| 17> nprocs = 24
| 18> end
| 19>
| 20>
| 21>                          ****END OF INPUT****

CARTESIAN COORDINATES (ANGSTROEM)
---------------------------------
  Ag     0.000000    1.604405   -0.611776
  Ag     1.389456   -0.802203   -0.611776
  Ag    -1.389456   -0.802203   -0.611776
  Ag     0.000000    0.000000    1.871824
  H      0.000000    0.000000   -1.715373

 Total Charge           Charge          ....    2
 Multiplicity           Mult            ....    2
 Number of Electrons    NEL             ....   75
 Basis Dimension        Dim             ....  241

ORBITAL ENERGIES
----------------
                 SPIN UP ORBITALS
  NO   OCC          E(Eh)            E(eV)
   0   1.0000      -4.060768      -110.4991
   1   1.0000      -4.060499      -110.4918
   2   1.0000      -4.060499      -110.4918
   3   1.0000      -4.028243      -109.6141
   4   1.0000      -2.670362       -72.6642
   5   1.0000      -2.667816       -72.5950
   6   1.0000      -2.667816       -72.5950
   7   1.0000      -2.665232       -72.5246
   8   1.0000      -2.665112       -72.5214
   9   1.0000      -2.665111       -72.5214
  10   1.0000      -2.664587       -72.5071
  11   1.0000      -2.664583       -72.5070
  12   1.0000      -2.664026       -72.4918
  13   1.0000      -2.634866       -71.6983
  14   1.0000      -2.632972       -71.6468
  15   1.0000      -2.632970       -71.6468
  16   1.0000      -0.798262       -21.7218
  17   1.0000      -0.731572       -19.9071
  18   1.0000      -0.714198       -19.4343
  19   1.0000      -0.714193       -19.4342
  20   1.0000      -0.700421       -19.0594
  21   1.0000      -0.700416       -19.0593
  22   1.0000      -0.699537       -19.0354
  23   1.0000      -0.686815       -18.6892
  24   1.0000      -0.686808       -18.6890
  25   1.0000      -0.679524       -18.4908
  26   1.0000      -0.679513       -18.4905
  27   1.0000      -0.676441       -18.4069
  28   1.0000      -0.674428       -18.3521
  29   1.0000      -0.674426       -18.3521
  30   1.0000      -0.669815       -18.2266
  31   1.0000      -0.659125       -17.9357
  32   1.0000      -0.655413       -17.8347
  33   1.0000      -0.655398       -17.8343
  34   1.0000      -0.649025       -17.6609
  35   1.0000      -0.649016       -17.6606
  36   1.0000      -0.644852       -17.5473
  37   1.0000      -0.533498       -14.5172
  38   0.0000      -0.456404       -12.4194
  39   0.0000      -0.456400       -12.4193
  40   0.0000      -0.394424       -10.7328
  41   0.0000      -0.339099        -9.2274
  42   0.0000      -0.325377        -8.8540

                 SPIN DOWN ORBITALS
  NO   OCC          E(Eh)            E(eV)
   0   1.0000      -4.058723      -110.4435
   1   1.0000      -4.058455      -110.4362
   2   1.0000      -4.058455      -110.4362
   3   1.0000      -4.028422      -109.6189
   4   1.0000      -2.667430       -72.5845
   5   1.0000      -2.665472       -72.5312
   6   1.0000      -2.665471       -72.5312
   7   1.0000      -2.663778       -72.4851
   8   1.0000      -2.663775       -72.4850
   9   1.0000      -2.663508       -72.4777
  10   1.0000      -2.662270       -72.4440
  11   1.0000      -2.661877       -72.4334
  12   1.0000      -2.661875       -72.4333
  13   1.0000      -2.635053       -71.7034
  14   1.0000      -2.633227       -71.6538
  15   1.0000      -2.633226       -71.6537
  16   1.0000      -0.778994       -21.1975
  17   1.0000      -0.727141       -19.7865
  18   1.0000      -0.713450       -19.4140
  19   1.0000      -0.713445       -19.4138
  20   1.0000      -0.697084       -18.9686
  21   1.0000      -0.696696       -18.9580
  22   1.0000      -0.696690       -18.9579
  23   1.0000      -0.684236       -18.6190
  24   1.0000      -0.684229       -18.6188
  25   1.0000      -0.675036       -18.3687
  26   1.0000      -0.674998       -18.3676
  27   1.0000      -0.674989       -18.3674
  28   1.0000      -0.672337       -18.2952
  29   1.0000      -0.672323       -18.2948
  30   1.0000      -0.663157       -18.0454
  31   1.0000      -0.658141       -17.9089
  32   1.0000      -0.651777       -17.7357
  33   1.0000      -0.651762       -17.7354
  34   1.0000      -0.645950       -17.5772
  35   1.0000      -0.645940       -17.5769
  36   1.0000      -0.636331       -17.3155
  37   0.0000      -0.488645       -13.2967
  38   0.0000      -0.451102       -12.2751
  39   0.0000      -0.451099       -12.2750
  40   0.0000      -0.379900       -10.3376
  41   0.0000      -0.332930        -9.0595

MULLIKEN ATOMIC CHARGES AND SPIN POPULATIONS
--------------------------------------------
   0 Ag:    0.451959    0.092231
   1 Ag:    0.451682    0.092246
   2 Ag:    0.451680    0.092247
   3 Ag:    0.408780    0.424636
   4 H :    0.235898    0.298640
Sum of atomic charges         :    2.0000000

LOEWDIN ATOMIC CHARGES AND SPIN POPULATIONS
-------------------------------------------
   0 Ag:    0.552846    0.175646
   1 Ag:    0.552828    0.175642
   2 Ag:    0.552827    0.175642
   3 Ag:    0.494619    0.283408
   4 H :   -0.153120    0.189663

  Mayer bond orders larger than 0.100000
B(  0-Ag,  1-Ag) :   0.4044 B(  0-Ag,  2-Ag) :   0.4044 B(  0-Ag,  3-Ag) :   0.3180
B(  0-Ag,  4-H ) :   0.2046 B(  1-Ag,  2-Ag) :   0.4044 B(  1-Ag,  3-Ag) :   0.3180
B(  1-Ag,  4-H ) :   0.2047 B(  2-Ag,  3-Ag) :   0.3180 B(  2-Ag,  4-H ) :   0.2047

Dispersion correction           -0.012512549
FINAL SINGLE POINT ENERGY      -587.741239659772

DIPOLE MOMENT
-------------
                                X             Y             Z
Electronic contribution:      0.00000      -0.00004       2.54162
Nuclear contribution   :      0.00000       0.00000      -2.67399
                        -----------------------------------------
Total Dipole Moment    :      0.00000      -0.00003      -0.13237
                        -----------------------------------------
Magnitude (a.u.)       :      0.13237
Magnitude (Debye)      :      0.33645

Rotational constants in cm-1:     0.020237     0.018353     0.018353
Rotational constants in MHz :   606.690796   550.208253   550.208173

                             ****ORCA TERMINATED NORMALLY****
TOTAL RUN TIME: 0 days 0 hours 0 minutes 13 seconds 407 msec
