                         Program Version 4.2.0 -  RELEASE  -
|  1> #
|  2> # Ag04C2_NH3_F TPSSh-D3BJ/Def2-TZVPPD
|  3> #
|  4> ! tpssh d3bj def2-tzvppd def2/jk grid4 nofinalgrid
|  5>
|  6> *xyz 2 1
|  7> Ag       0.000000    1.593354   -0.403942
|  8> Ag       1.379885   -0.796677   -0.403942
|  9> Ag      -1.379885   -0.796677   -0.403942
| 10> Ag       0.000000    0.000000    1.894943
| 11> N        0.000000    0.000000   -3.082630
| 12> H        0.808649    0.466874   -3.509356
| 13> H       -0.000000   -0.933748   -3.509356
| 14> H       -0.808649    0.466874   -3.509356
| 15> *
| 16>
| 17> %maxcore 5000
| 18>
| 19> %pal
| 20> nprocs = 24
| 21> end
| 22>
| 23>
| 24>                          ****END OF INPUT****

CARTESIAN COORDINATES (ANGSTROEM)
---------------------------------
  Ag     0.000000    1.593354   -0.403942
  Ag     1.379885   -0.796677   -0.403942
  Ag    -1.379885   -0.796677   -0.403942
  Ag     0.000000    0.000000    1.894943
  N      0.000000    0.000000   -3.082630
  H      0.808649    0.466874   -3.509356
  H     -0.000000   -0.933748   -3.509356
  H     -0.808649    0.466874   -3.509356

 Total Charge           Charge          ....    2
 Multiplicity           Mult            ....    1
 Number of Electrons    NEL             ....   84
 Basis Dimension        Dim             ....  312

ORBITAL ENERGIES
----------------

  NO   OCC          E(Eh)            E(eV)
   0   2.0000     -14.551807      -395.9748
   1   2.0000      -4.020589      -109.4058
   2   2.0000      -4.020295      -109.3978
   3   2.0000      -4.020290      -109.3976
   4   2.0000      -4.015107      -109.2566
   5   2.0000      -2.629491       -71.5521
   6   2.0000      -2.627354       -71.4939
   7   2.0000      -2.627352       -71.4939
   8   2.0000      -2.625769       -71.4508
   9   2.0000      -2.625767       -71.4507
  10   2.0000      -2.625215       -71.4357
  11   2.0000      -2.625135       -71.4335
  12   2.0000      -2.624136       -71.4064
  13   2.0000      -2.624131       -71.4062
  14   2.0000      -2.621355       -71.3307
  15   2.0000      -2.619631       -71.2838
  16   2.0000      -2.619630       -71.2838
  17   2.0000      -1.143199       -31.1080
  18   2.0000      -0.746445       -20.3118
  19   2.0000      -0.746442       -20.3117
  20   2.0000      -0.705936       -19.2095
  21   2.0000      -0.683026       -18.5861
  22   2.0000      -0.679781       -18.4978
  23   2.0000      -0.679768       -18.4974
  24   2.0000      -0.670986       -18.2585
  25   2.0000      -0.670985       -18.2584
  26   2.0000      -0.661470       -17.9995
  27   2.0000      -0.656276       -17.8582
  28   2.0000      -0.656266       -17.8579
  29   2.0000      -0.638661       -17.3788
  30   2.0000      -0.637807       -17.3556
  31   2.0000      -0.637804       -17.3555
  32   2.0000      -0.635770       -17.3002
  33   2.0000      -0.635761       -17.2999
  34   2.0000      -0.635442       -17.2913
  35   2.0000      -0.634641       -17.2695
  36   2.0000      -0.634638       -17.2694
  37   2.0000      -0.619924       -16.8690
  38   2.0000      -0.618279       -16.8242
  39   2.0000      -0.618267       -16.8239
  40   2.0000      -0.613641       -16.6980
  41   2.0000      -0.558492       -15.1974
  42   0.0000      -0.426012       -11.5924
  43   0.0000      -0.426006       -11.5922
  44   0.0000      -0.411584       -11.1998
  45   0.0000      -0.315520        -8.5857
  46   0.0000      -0.303281        -8.2527

MULLIKEN ATOMIC CHARGES
-----------------------
   0 Ag:    0.445829
   1 Ag:    0.445898
   2 Ag:    0.445888
   3 Ag:    0.470132
   4 N :   -0.349448
   5 H :    0.180464
   6 H :    0.180774
   7 H :    0.180464
Sum of atomic charges:    2.0000000

LOEWDIN ATOMIC CHARGES
----------------------
   0 Ag:    0.478136
   1 Ag:    0.478129
   2 Ag:    0.478129
   3 Ag:    0.468806
   4 N :    0.411890
   5 H :   -0.105032
   6 H :   -0.105026
   7 H :   -0.105032

  Mayer bond orders larger than 0.100000
B(  0-Ag,  1-Ag) :   0.3810 B(  0-Ag,  2-Ag) :   0.3810 B(  0-Ag,  3-Ag) :   0.3731
B(  1-Ag,  2-Ag) :   0.3809 B(  1-Ag,  3-Ag) :   0.3730 B(  2-Ag,  3-Ag) :   0.3730
B(  4-N ,  5-H ) :   1.0139 B(  4-N ,  6-H ) :   1.0135 B(  4-N ,  7-H ) :   1.0139

Dispersion correction           -0.016665561
FINAL SINGLE POINT ENERGY      -643.827420291420

DIPOLE MOMENT
-------------
                                X             Y             Z
Electronic contribution:      0.00000       0.00005      41.72738
Nuclear contribution   :      0.00000       0.00000     -43.35494
                        -----------------------------------------
Total Dipole Moment    :      0.00000       0.00005      -1.62756
                        -----------------------------------------
Magnitude (a.u.)       :      1.62756
Magnitude (Debye)      :      4.13693

Rotational constants in cm-1:     0.020453     0.016499     0.016499
Rotational constants in MHz :   613.168216   494.640125   494.640113

                             ****ORCA TERMINATED NORMALLY****
TOTAL RUN TIME: 0 days 0 hours 0 minutes 19 seconds 351 msec
