                         Program Version 4.2.0 -  RELEASE  -
|  1> #
|  2> # Ag04C2 TPSSh-D3BJ/Def2-TZVPPD
|  3> #
|  4> ! tpssh d3bj def2-tzvppd def2/jk grid4 nofinalgrid
|  5>
|  6> *xyz 2 1
|  7> Ag      -0.000000   -0.000016    1.715553
|  8> Ag       0.000000   -1.617524   -0.571836
|  9> Ag       1.400774    0.808769   -0.571859
| 10> Ag      -1.400774    0.808770   -0.571858
| 11> *
| 12>
| 13> %maxcore 5000
| 14>
| 15> %pal
| 16> nprocs = 24
| 17> end
| 18>
| 19>
| 20>                          ****END OF INPUT****

CARTESIAN COORDINATES (ANGSTROEM)
---------------------------------
  Ag    -0.000000   -0.000016    1.715553
  Ag     0.000000   -1.617524   -0.571836
  Ag     1.400774    0.808769   -0.571859
  Ag    -1.400774    0.808770   -0.571858

 Total Charge           Charge          ....    2
 Multiplicity           Mult            ....    1
 Number of Electrons    NEL             ....   74
 Basis Dimension        Dim             ....  224

ORBITAL ENERGIES
----------------

  NO   OCC          E(Eh)            E(eV)
   0   2.0000      -4.046052      -110.0987
   1   2.0000      -4.045739      -110.0901
   2   2.0000      -4.045737      -110.0901
   3   2.0000      -4.045734      -110.0900
   4   2.0000      -2.654944       -72.2447
   5   2.0000      -2.652494       -72.1780
   6   2.0000      -2.652493       -72.1780
   7   2.0000      -2.652493       -72.1780
   8   2.0000      -2.651250       -72.1442
   9   2.0000      -2.651249       -72.1441
  10   2.0000      -2.650387       -72.1207
  11   2.0000      -2.650387       -72.1207
  12   2.0000      -2.650385       -72.1206
  13   2.0000      -2.650023       -72.1108
  14   2.0000      -2.650022       -72.1108
  15   2.0000      -2.650021       -72.1107
  16   2.0000      -0.729914       -19.8620
  17   2.0000      -0.704894       -19.1811
  18   2.0000      -0.704883       -19.1809
  19   2.0000      -0.704875       -19.1806
  20   2.0000      -0.696801       -18.9609
  21   2.0000      -0.696793       -18.9607
  22   2.0000      -0.683492       -18.5988
  23   2.0000      -0.683488       -18.5986
  24   2.0000      -0.683475       -18.5983
  25   2.0000      -0.664385       -18.0788
  26   2.0000      -0.664372       -18.0785
  27   2.0000      -0.664368       -18.0784
  28   2.0000      -0.662836       -18.0367
  29   2.0000      -0.662823       -18.0363
  30   2.0000      -0.661729       -18.0066
  31   2.0000      -0.661715       -18.0062
  32   2.0000      -0.661699       -18.0057
  33   2.0000      -0.646213       -17.5844
  34   2.0000      -0.646212       -17.5843
  35   2.0000      -0.646202       -17.5840
  36   2.0000      -0.616684       -16.7808
  37   0.0000      -0.447490       -12.1768
  38   0.0000      -0.447485       -12.1767
  39   0.0000      -0.447483       -12.1766
  40   0.0000      -0.331290        -9.0149
  41   0.0000      -0.320286        -8.7154

MULLIKEN ATOMIC CHARGES
-----------------------
   0 Ag:    0.499985
   1 Ag:    0.500035
   2 Ag:    0.499984
   3 Ag:    0.499995
Sum of atomic charges:    2.0000000

LOEWDIN ATOMIC CHARGES
----------------------
   0 Ag:    0.499987
   1 Ag:    0.500024
   2 Ag:    0.499994
   3 Ag:    0.499995

  Mayer bond orders larger than 0.100000
B(  0-Ag,  1-Ag) :   0.3736 B(  0-Ag,  2-Ag) :   0.3736 B(  0-Ag,  3-Ag) :   0.3736
B(  1-Ag,  2-Ag) :   0.3736 B(  1-Ag,  3-Ag) :   0.3736 B(  2-Ag,  3-Ag) :   0.3736

Dispersion correction           -0.010902882
FINAL SINGLE POINT ENERGY      -587.199663671324

DIPOLE MOMENT
-------------
                                X             Y             Z
Electronic contribution:     -0.00000      -0.00006      -0.00003
Nuclear contribution   :      0.00000      -0.00000       0.00000
                        -----------------------------------------
Total Dipole Moment    :     -0.00000      -0.00006      -0.00003
                        -----------------------------------------
Magnitude (a.u.)       :      0.00007
Magnitude (Debye)      :      0.00017

Rotational constants in cm-1:     0.019912     0.019911     0.019911
Rotational constants in MHz :   596.940436   596.919431   596.905399

                             ****ORCA TERMINATED NORMALLY****
TOTAL RUN TIME: 0 days 0 hours 0 minutes 9 seconds 742 msec
