                         Program Version 4.2.0 -  RELEASE  -
|  1> #
|  2> # Ag04N0 TPSSh-D3BJ/Def2-TZVPPD
|  3> #
|  4> ! tpssh d3bj def2-tzvppd def2/jk grid4 nofinalgrid
|  5>
|  6> *xyz 0 1
|  7> Ag      -1.015022   -0.433109    0.700282
|  8> Ag       0.974659   -2.209777    0.043294
|  9> Ag       1.013798    0.433158   -0.699441
| 10> Ag      -0.973435    2.209727   -0.044135
| 11> *
| 12>
| 13> %maxcore 5000
| 14>
| 15> %pal
| 16> nprocs = 24
| 17> end
| 18>
| 19>
| 20>                          ****END OF INPUT****

CARTESIAN COORDINATES (ANGSTROEM)
---------------------------------
  Ag    -1.015022   -0.433109    0.700282
  Ag     0.974659   -2.209777    0.043294
  Ag     1.013798    0.433158   -0.699441
  Ag    -0.973435    2.209727   -0.044135

 Total Charge           Charge          ....    0
 Multiplicity           Mult            ....    1
 Number of Electrons    NEL             ....   76
 Basis Dimension        Dim             ....  224

ORBITAL ENERGIES
----------------

  NO   OCC          E(Eh)            E(eV)
   0   2.0000      -3.679499      -100.1243
   1   2.0000      -3.679084      -100.1130
   2   2.0000      -3.655009       -99.4578
   3   2.0000      -3.654957       -99.4564
   4   2.0000      -2.289056       -62.2884
   5   2.0000      -2.284182       -62.1557
   6   2.0000      -2.283824       -62.1460
   7   2.0000      -2.283268       -62.1309
   8   2.0000      -2.283083       -62.1258
   9   2.0000      -2.282651       -62.1141
  10   2.0000      -2.261392       -61.5356
  11   2.0000      -2.261244       -61.5316
  12   2.0000      -2.259592       -61.4866
  13   2.0000      -2.259513       -61.4845
  14   2.0000      -2.257226       -61.4222
  15   2.0000      -2.257178       -61.4209
  16   2.0000      -0.349870        -9.5205
  17   2.0000      -0.349448        -9.5090
  18   2.0000      -0.330984        -9.0065
  19   2.0000      -0.328445        -8.9374
  20   2.0000      -0.325635        -8.8610
  21   2.0000      -0.320027        -8.7084
  22   2.0000      -0.308712        -8.4005
  23   2.0000      -0.306879        -8.3506
  24   2.0000      -0.293031        -7.9738
  25   2.0000      -0.292044        -7.9469
  26   2.0000      -0.287669        -7.8279
  27   2.0000      -0.282143        -7.6775
  28   2.0000      -0.281645        -7.6639
  29   2.0000      -0.281082        -7.6486
  30   2.0000      -0.276676        -7.5288
  31   2.0000      -0.276062        -7.5120
  32   2.0000      -0.275085        -7.4854
  33   2.0000      -0.273123        -7.4321
  34   2.0000      -0.270489        -7.3604
  35   2.0000      -0.260824        -7.0974
  36   2.0000      -0.243389        -6.6229
  37   2.0000      -0.164873        -4.4864
  38   0.0000      -0.112889        -3.0719
  39   0.0000      -0.071236        -1.9384
  40   0.0000      -0.049121        -1.3366
  41   0.0000      -0.022865        -0.6222
  42   0.0000      -0.017911        -0.4874

MULLIKEN ATOMIC CHARGES
-----------------------
   0 Ag:    0.080171
   1 Ag:   -0.080062
   2 Ag:    0.079808
   3 Ag:   -0.079917
Sum of atomic charges:    0.0000000

LOEWDIN ATOMIC CHARGES
----------------------
   0 Ag:   -0.074219
   1 Ag:    0.074569
   2 Ag:   -0.075020
   3 Ag:    0.074670

  Mayer bond orders larger than 0.100000
B(  0-Ag,  1-Ag) :   0.5317 B(  0-Ag,  2-Ag) :   0.4939 B(  0-Ag,  3-Ag) :   0.5322
B(  1-Ag,  2-Ag) :   0.5324 B(  1-Ag,  3-Ag) :   0.2114 B(  2-Ag,  3-Ag) :   0.5324

Dispersion correction           -0.009975025
FINAL SINGLE POINT ENERGY      -587.824319290415

DIPOLE MOMENT
-------------
                                X             Y             Z
Electronic contribution:     -0.00138       0.00016       0.00076
Nuclear contribution   :      0.00000       0.00000       0.00000
                        -----------------------------------------
Total Dipole Moment    :     -0.00138       0.00016       0.00076
                        -----------------------------------------
Magnitude (a.u.)       :      0.00158
Magnitude (Debye)      :      0.00402

Rotational constants in cm-1:     0.045790     0.013394     0.010363
Rotational constants in MHz :  1372.764620   401.554164   310.676613

                             ****ORCA TERMINATED NORMALLY****
TOTAL RUN TIME: 0 days 0 hours 0 minutes 10 seconds 300 msec
