                         Program Version 4.2.0 -  RELEASE  -
|  1> #
|  2> # Au01N0 TPSSh-D3BJ/Def2-TZVPPD
|  3> #
|  4> ! tpssh d3bj def2-tzvppd def2/jk grid4 nofinalgrid
|  5>
|  6> *xyz 0 2
|  7> Au       0.000000    0.000000    0.000000
|  8> *
|  9>
| 10> %maxcore 5000
| 11>
| 12> %pal
| 13> nprocs = 24
| 14> end
| 15>
| 16>
| 17>                          ****END OF INPUT****

CARTESIAN COORDINATES (ANGSTROEM)
---------------------------------
  Au     0.000000    0.000000    0.000000

 Total Charge           Charge          ....    0
 Multiplicity           Mult            ....    2
 Number of Electrons    NEL             ....   19
 Basis Dimension        Dim             ....   59

ORBITAL ENERGIES
----------------
                 SPIN UP ORBITALS
  NO   OCC          E(Eh)            E(eV)
   0   1.0000      -4.072046      -110.8060
   1   1.0000      -2.263988       -61.6062
   2   1.0000      -2.263988       -61.6062
   3   1.0000      -2.263988       -61.6062
   4   1.0000      -0.278602        -7.5811
   5   1.0000      -0.278602        -7.5811
   6   1.0000      -0.278602        -7.5811
   7   1.0000      -0.278602        -7.5811
   8   1.0000      -0.278602        -7.5811
   9   1.0000      -0.228711        -6.2235
  10   0.0000      -0.017885        -0.4867
  11   0.0000      -0.017885        -0.4867
  12   0.0000      -0.017885        -0.4867
  13   0.0000       0.130969         3.5638
  14   0.0000       0.181665         4.9434

                 SPIN DOWN ORBITALS
  NO   OCC          E(Eh)            E(eV)
   0   1.0000      -4.070836      -110.7731
   1   1.0000      -2.263289       -61.5872
   2   1.0000      -2.263289       -61.5872
   3   1.0000      -2.263289       -61.5872
   4   1.0000      -0.267219        -7.2714
   5   1.0000      -0.267219        -7.2714
   6   1.0000      -0.267219        -7.2714
   7   1.0000      -0.267219        -7.2714
   8   1.0000      -0.267219        -7.2714
   9   0.0000      -0.168752        -4.5920
  10   0.0000       0.007561         0.2057
  11   0.0000       0.007565         0.2059
  12   0.0000       0.007581         0.2063
  13   0.0000       0.148805         4.0492

MULLIKEN ATOMIC CHARGES AND SPIN POPULATIONS
--------------------------------------------
   0 Au:    0.000000    1.000000
Sum of atomic charges         :    0.0000000

LOEWDIN ATOMIC CHARGES AND SPIN POPULATIONS
-------------------------------------------
   0 Au:    0.000000    1.000000

Dispersion correction            0.000000000
FINAL SINGLE POINT ENERGY      -135.662993875531

DIPOLE MOMENT
-------------
                                X             Y             Z
Electronic contribution:      0.00000      -0.00000      -0.00000
Nuclear contribution   :      0.00000       0.00000       0.00000
                        -----------------------------------------
Total Dipole Moment    :      0.00000      -0.00000      -0.00000
                        -----------------------------------------
Magnitude (a.u.)       :      0.00000
Magnitude (Debye)      :      0.00000

Rotational constants in cm-1:     0.000000     0.000000     0.000000
Rotational constants in MHz :     0.000000     0.000000     0.000000

                             ****ORCA TERMINATED NORMALLY****
TOTAL RUN TIME: 0 days 0 hours 0 minutes 3 seconds 898 msec
