                         Program Version 4.2.0 -  RELEASE  -
|  1> #
|  2> # Au01N0_F TPSSh-D3BJ/Def2-TZVPPD
|  3> #
|  4> ! tpssh d3bj def2-tzvppd def2/jk grid4 nofinalgrid
|  5>
|  6> *xyz 0 1
|  7> Au       0.000000    0.000000    0.196853
|  8> F        0.000000    0.000000   -1.727931
|  9> *
| 10>
| 11> %maxcore 5000
| 12>
| 13> %pal
| 14> nprocs = 24
| 15> end
| 16>
| 17>
| 18>                          ****END OF INPUT****

CARTESIAN COORDINATES (ANGSTROEM)
---------------------------------
  Au     0.000000    0.000000    0.196853
  F      0.000000    0.000000   -1.727931

 Total Charge           Charge          ....    0
 Multiplicity           Mult            ....    1
 Number of Electrons    NEL             ....   28
 Basis Dimension        Dim             ....   99

ORBITAL ENERGIES
----------------

  NO   OCC          E(Eh)            E(eV)
   0   2.0000     -24.552781      -668.1151
   1   2.0000      -4.127197      -112.3067
   2   2.0000      -2.332208       -63.4626
   3   2.0000      -2.311568       -62.9010
   4   2.0000      -2.311568       -62.9010
   5   2.0000      -1.078885       -29.3579
   6   2.0000      -0.428144       -11.6504
   7   2.0000      -0.377660       -10.2766
   8   2.0000      -0.377660       -10.2766
   9   2.0000      -0.310616        -8.4523
  10   2.0000      -0.310615        -8.4523
  11   2.0000      -0.285791        -7.7768
  12   2.0000      -0.285791        -7.7768
  13   2.0000      -0.277384        -7.5480
  14   0.0000      -0.162052        -4.4097
  15   0.0000      -0.009326        -0.2538
  16   0.0000      -0.009326        -0.2538
  17   0.0000       0.031161         0.8479
  18   0.0000       0.088504         2.4083

MULLIKEN ATOMIC CHARGES
-----------------------
   0 Au:    0.431706
   1 F :   -0.431706
Sum of atomic charges:   -0.0000000

LOEWDIN ATOMIC CHARGES
----------------------
   0 Au:    0.595108
   1 F :   -0.595108

  Mayer bond orders larger than 0.100000
B(  0-Au,  1-F ) :   0.8656

Dispersion correction           -0.000602518
FINAL SINGLE POINT ENERGY      -235.540311290557

DIPOLE MOMENT
-------------
                                X             Y             Z
Electronic contribution:     -0.00000      -0.00000      25.34464
Nuclear contribution   :      0.00000       0.00000     -23.77673
                        -----------------------------------------
Total Dipole Moment    :     -0.00000      -0.00000       1.56791
                        -----------------------------------------
Magnitude (a.u.)       :      1.56791
Magnitude (Debye)      :      3.98530

Rotational constants in cm-1:     0.000000     0.262612     0.262612
Rotational constants in MHz :     0.000000  7872.917876  7872.917876

                             ****ORCA TERMINATED NORMALLY****
TOTAL RUN TIME: 0 days 0 hours 0 minutes 4 seconds 905 msec
