                         Program Version 4.2.0 -  RELEASE  -
|  1> #
|  2> # Au01N0_H TPSSh-D3BJ/Def2-TZVPPD
|  3> #
|  4> ! tpssh d3bj def2-tzvppd def2/jk grid4 nofinalgrid
|  5>
|  6> *xyz 0 1
|  7> Au       0.000000    0.000000    0.019034
|  8> H        0.000000    0.000000   -1.503691
|  9> *
| 10>
| 11> %maxcore 5000
| 12>
| 13> %pal
| 14> nprocs = 24
| 15> end
| 16>
| 17>
| 18>                          ****END OF INPUT****

CARTESIAN COORDINATES (ANGSTROEM)
---------------------------------
  Au     0.000000    0.000000    0.019034
  H      0.000000    0.000000   -1.503691

 Total Charge           Charge          ....    0
 Multiplicity           Mult            ....    1
 Number of Electrons    NEL             ....   20
 Basis Dimension        Dim             ....   76

ORBITAL ENERGIES
----------------

  NO   OCC          E(Eh)            E(eV)
   0   2.0000      -4.105913      -111.7276
   1   2.0000      -2.310987       -62.8852
   2   2.0000      -2.288244       -62.2663
   3   2.0000      -2.288244       -62.2663
   4   2.0000      -0.411131       -11.1875
   5   2.0000      -0.306416        -8.3380
   6   2.0000      -0.306416        -8.3380
   7   2.0000      -0.285532        -7.7697
   8   2.0000      -0.285531        -7.7697
   9   2.0000      -0.250339        -6.8121
  10   0.0000      -0.098400        -2.6776
  11   0.0000      -0.011531        -0.3138
  12   0.0000      -0.011531        -0.3138
  13   0.0000       0.072970         1.9856
  14   0.0000       0.094801         2.5797

MULLIKEN ATOMIC CHARGES
-----------------------
   0 Au:   -0.148619
   1 H :    0.148619
Sum of atomic charges:    0.0000000

LOEWDIN ATOMIC CHARGES
----------------------
   0 Au:    0.353654
   1 H :   -0.353654

  Mayer bond orders larger than 0.100000
B(  0-Au,  1-H ) :   1.0392

Dispersion correction           -0.000495678
FINAL SINGLE POINT ENERGY      -136.280259619017

DIPOLE MOMENT
-------------
                                X             Y             Z
Electronic contribution:      0.00000      -0.00000       3.13484
Nuclear contribution   :      0.00000       0.00000      -2.58451
                        -----------------------------------------
Total Dipole Moment    :      0.00000      -0.00000       0.55033
                        -----------------------------------------
Magnitude (a.u.)       :      0.55033
Magnitude (Debye)      :      1.39882

Rotational constants in cm-1:     0.000000     7.249537     7.249537
Rotational constants in MHz :     0.000000 217335.666254 217335.666254

                             ****ORCA TERMINATED NORMALLY****
TOTAL RUN TIME: 0 days 0 hours 0 minutes 4 seconds 592 msec
