                         Program Version 4.2.0 -  RELEASE  -
|  1> #
|  2> # Au02N0 TPSSh-D3BJ/Def2-TZVPPD
|  3> #
|  4> ! tpssh d3bj def2-tzvppd def2/jk grid4 nofinalgrid
|  5>
|  6> *xyz 0 1
|  7> Au       0.000000    0.000000    1.239541
|  8> Au       0.000000    0.000000   -1.239541
|  9> *
| 10>
| 11> %maxcore 5000
| 12>
| 13> %pal
| 14> nprocs = 24
| 15> end
| 16>
| 17>
| 18>                          ****END OF INPUT****

CARTESIAN COORDINATES (ANGSTROEM)
---------------------------------
  Au     0.000000    0.000000    1.239541
  Au     0.000000    0.000000   -1.239541

 Total Charge           Charge          ....    0
 Multiplicity           Mult            ....    1
 Number of Electrons    NEL             ....   38
 Basis Dimension        Dim             ....  118

ORBITAL ENERGIES
----------------

  NO   OCC          E(Eh)            E(eV)
   0   2.0000      -4.080560      -111.0377
   1   2.0000      -4.079827      -111.0177
   2   2.0000      -2.285201       -62.1835
   3   2.0000      -2.273080       -61.8537
   4   2.0000      -2.268045       -61.7166
   5   2.0000      -2.268045       -61.7166
   6   2.0000      -2.266887       -61.6851
   7   2.0000      -2.266887       -61.6851
   8   2.0000      -0.352379        -9.5887
   9   2.0000      -0.315373        -8.5817
  10   2.0000      -0.315373        -8.5817
  11   2.0000      -0.277804        -7.5594
  12   2.0000      -0.277793        -7.5591
  13   2.0000      -0.264452        -7.1961
  14   2.0000      -0.264441        -7.1958
  15   2.0000      -0.251289        -6.8379
  16   2.0000      -0.251289        -6.8379
  17   2.0000      -0.246834        -6.7167
  18   2.0000      -0.244936        -6.6650
  19   0.0000      -0.134461        -3.6589
  20   0.0000      -0.026231        -0.7138
  21   0.0000      -0.026230        -0.7138
  22   0.0000      -0.008885        -0.2418
  23   0.0000       0.043095         1.1727

MULLIKEN ATOMIC CHARGES
-----------------------
   0 Au:    0.000002
   1 Au:   -0.000002
Sum of atomic charges:    0.0000000

LOEWDIN ATOMIC CHARGES
----------------------
   0 Au:    0.000000
   1 Au:   -0.000000

  Mayer bond orders larger than 0.100000
B(  0-Au,  1-Au) :   1.1461

Dispersion correction           -0.001968275
FINAL SINGLE POINT ENERGY      -271.407827281832

DIPOLE MOMENT
-------------
                                X             Y             Z
Electronic contribution:     -0.00000      -0.00000      -0.00000
Nuclear contribution   :      0.00000       0.00000       0.00000
                        -----------------------------------------
Total Dipole Moment    :     -0.00000      -0.00000      -0.00000
                        -----------------------------------------
Magnitude (a.u.)       :      0.00000
Magnitude (Debye)      :      0.00000

Rotational constants in cm-1:     0.000000     0.027852     0.027852
Rotational constants in MHz :     0.000000   834.974952   834.974952

                             ****ORCA TERMINATED NORMALLY****
TOTAL RUN TIME: 0 days 0 hours 0 minutes 5 seconds 711 msec
