                         Program Version 4.2.0 -  RELEASE  -
|  1> #
|  2> # Au03C1_LIN TPSSh-D3BJ/Def2-TZVPPD
|  3> #
|  4> ! tpssh d3bj def2-tzvppd def2/jk grid4 nofinalgrid
|  5>
|  6> *xyz 1 1
|  7> Au       0.000000    0.000000    0.000000
|  8> Au       0.000000    0.000000    2.576864
|  9> Au       0.000000    0.000000   -2.576864
| 10> *
| 11>
| 12> %maxcore 5000
| 13>
| 14> %pal
| 15> nprocs = 24
| 16> end
| 17>
| 18>
| 19>                          ****END OF INPUT****

CARTESIAN COORDINATES (ANGSTROEM)
---------------------------------
  Au     0.000000    0.000000    0.000000
  Au     0.000000    0.000000    2.576864
  Au     0.000000    0.000000   -2.576864

 Total Charge           Charge          ....    1
 Multiplicity           Mult            ....    1
 Number of Electrons    NEL             ....   56
 Basis Dimension        Dim             ....  177

ORBITAL ENERGIES
----------------

  NO   OCC          E(Eh)            E(eV)
   0   2.0000      -4.291343      -116.7734
   1   2.0000      -4.291341      -116.7733
   2   2.0000      -4.257168      -115.8434
   3   2.0000      -2.489161       -67.7335
   4   2.0000      -2.488082       -67.7042
   5   2.0000      -2.482196       -67.5440
   6   2.0000      -2.482196       -67.5440
   7   2.0000      -2.482183       -67.5436
   8   2.0000      -2.482183       -67.5436
   9   2.0000      -2.457049       -66.8597
  10   2.0000      -2.442856       -66.4735
  11   2.0000      -2.442856       -66.4735
  12   2.0000      -0.566054       -15.4031
  13   2.0000      -0.516815       -14.0633
  14   2.0000      -0.516815       -14.0633
  15   2.0000      -0.500992       -13.6327
  16   2.0000      -0.494920       -13.4675
  17   2.0000      -0.494920       -13.4675
  18   2.0000      -0.486977       -13.2513
  19   2.0000      -0.486965       -13.2510
  20   2.0000      -0.485890       -13.2218
  21   2.0000      -0.485879       -13.2214
  22   2.0000      -0.443053       -12.0561
  23   2.0000      -0.442444       -12.0395
  24   2.0000      -0.442427       -12.0390
  25   2.0000      -0.436015       -11.8646
  26   2.0000      -0.436015       -11.8646
  27   2.0000      -0.419815       -11.4237
  28   0.0000      -0.391130       -10.6432
  29   0.0000      -0.277836        -7.5603
  30   0.0000      -0.195581        -5.3220
  31   0.0000      -0.195581        -5.3220
  32   0.0000      -0.174961        -4.7609

MULLIKEN ATOMIC CHARGES
-----------------------
   0 Au:   -0.024385
   1 Au:    0.512190
   2 Au:    0.512194
Sum of atomic charges:    1.0000000

LOEWDIN ATOMIC CHARGES
----------------------
   0 Au:    0.128399
   1 Au:    0.435800
   2 Au:    0.435801

  Mayer bond orders larger than 0.100000
B(  0-Au,  1-Au) :   0.6530 B(  0-Au,  2-Au) :   0.6530 B(  1-Au,  2-Au) :   0.4340

Dispersion correction           -0.004683465
FINAL SINGLE POINT ENERGY      -406.799887293330

DIPOLE MOMENT
-------------
                                X             Y             Z
Electronic contribution:      0.00000       0.00000      -0.00001
Nuclear contribution   :      0.00000       0.00000       0.00000
                        -----------------------------------------
Total Dipole Moment    :      0.00000       0.00000      -0.00001
                        -----------------------------------------
Magnitude (a.u.)       :      0.00001
Magnitude (Debye)      :      0.00001

Rotational constants in cm-1:     0.000000     0.006445     0.006445
Rotational constants in MHz :     0.000000   193.202279   193.202279

                             ****ORCA TERMINATED NORMALLY****
TOTAL RUN TIME: 0 days 0 hours 0 minutes 9 seconds 73 msec
