                         Program Version 4.2.0 -  RELEASE  -
|  1> #
|  2> # Au03N0_D3H TPSSh-D3BJ/Def2-TZVPPD
|  3> #
|  4> ! tpssh d3bj def2-tzvppd def2/jk grid4 nofinalgrid
|  5>
|  6> *xyz 0 2
|  7> Au       0.000000    1.515176   -0.000000
|  8> Au       1.312181   -0.757588    0.000000
|  9> Au      -1.312181   -0.757588   -0.000000
| 10> *
| 11>
| 12> %maxcore 5000
| 13>
| 14> %pal
| 15> nprocs = 24
| 16> end
| 17>
| 18>
| 19>                          ****END OF INPUT****

CARTESIAN COORDINATES (ANGSTROEM)
---------------------------------
  Au     0.000000    1.515176   -0.000000
  Au     1.312181   -0.757588    0.000000
  Au    -1.312181   -0.757588   -0.000000

 Total Charge           Charge          ....    0
 Multiplicity           Mult            ....    2
 Number of Electrons    NEL             ....   57
 Basis Dimension        Dim             ....  177

ORBITAL ENERGIES
----------------
                 SPIN UP ORBITALS
  NO   OCC          E(Eh)            E(eV)
   0   1.0000      -4.099445      -111.5516
   1   1.0000      -4.099109      -111.5424
   2   1.0000      -4.087274      -111.2204
   3   1.0000      -2.299545       -62.5738
   4   1.0000      -2.293450       -62.4080
   5   1.0000      -2.290711       -62.3334
   6   1.0000      -2.288452       -62.2719
   7   1.0000      -2.286178       -62.2101
   8   1.0000      -2.285562       -62.1933
   9   1.0000      -2.281152       -62.0733
  10   1.0000      -2.277403       -61.9713
  11   1.0000      -2.270700       -61.7889
  12   1.0000      -0.385328       -10.4853
  13   1.0000      -0.346640        -9.4326
  14   1.0000      -0.341611        -9.2957
  15   1.0000      -0.334820        -9.1109
  16   1.0000      -0.316501        -8.6124
  17   1.0000      -0.307148        -8.3579
  18   1.0000      -0.302551        -8.2328
  19   1.0000      -0.281311        -7.6549
  20   1.0000      -0.279495        -7.6055
  21   1.0000      -0.275256        -7.4901
  22   1.0000      -0.272821        -7.4238
  23   1.0000      -0.271002        -7.3743
  24   1.0000      -0.264553        -7.1988
  25   1.0000      -0.264273        -7.1912
  26   1.0000      -0.263435        -7.1684
  27   1.0000      -0.244561        -6.6549
  28   1.0000      -0.171394        -4.6639
  29   0.0000      -0.153089        -4.1658
  30   0.0000      -0.049308        -1.3417
  31   0.0000      -0.032468        -0.8835
  32   0.0000      -0.013613        -0.3704
  33   0.0000      -0.012763        -0.3473

                 SPIN DOWN ORBITALS
  NO   OCC          E(Eh)            E(eV)
   0   1.0000      -4.098601      -111.5286
   1   1.0000      -4.098267      -111.5195
   2   1.0000      -4.084746      -111.1516
   3   1.0000      -2.298534       -62.5463
   4   1.0000      -2.292218       -62.3744
   5   1.0000      -2.289369       -62.2969
   6   1.0000      -2.287497       -62.2460
   7   1.0000      -2.285709       -62.1973
   8   1.0000      -2.285097       -62.1806
   9   1.0000      -2.278009       -61.9878
  10   1.0000      -2.274885       -61.9028
  11   1.0000      -2.268835       -61.7381
  12   1.0000      -0.380138       -10.3441
  13   1.0000      -0.344143        -9.3646
  14   1.0000      -0.333153        -9.0656
  15   1.0000      -0.332804        -9.0561
  16   1.0000      -0.311957        -8.4888
  17   1.0000      -0.305302        -8.3077
  18   1.0000      -0.299068        -8.1380
  19   1.0000      -0.278101        -7.5675
  20   1.0000      -0.277559        -7.5528
  21   1.0000      -0.273622        -7.4456
  22   1.0000      -0.272908        -7.4262
  23   1.0000      -0.264754        -7.2043
  24   1.0000      -0.259912        -7.0726
  25   1.0000      -0.256581        -6.9819
  26   1.0000      -0.256536        -6.9807
  27   1.0000      -0.236417        -6.4332
  28   0.0000      -0.145791        -3.9672
  29   0.0000      -0.126280        -3.4362
  30   0.0000      -0.043653        -1.1879
  31   0.0000      -0.021694        -0.5903
  32   0.0000      -0.002108        -0.0574

MULLIKEN ATOMIC CHARGES AND SPIN POPULATIONS
--------------------------------------------
   0 Au:   -0.108096    0.632740
   1 Au:    0.054046    0.183629
   2 Au:    0.054050    0.183630
Sum of atomic charges         :   -0.0000000

LOEWDIN ATOMIC CHARGES AND SPIN POPULATIONS
-------------------------------------------
   0 Au:   -0.071392    0.532746
   1 Au:    0.035696    0.233627
   2 Au:    0.035696    0.233627

  Mayer bond orders larger than 0.100000
B(  0-Au,  1-Au) :   0.6380 B(  0-Au,  2-Au) :   0.6380 B(  1-Au,  2-Au) :   0.7909

Dispersion correction           -0.005871230
FINAL SINGLE POINT ENERGY      -407.114247153056

DIPOLE MOMENT
-------------
                                X             Y             Z
Electronic contribution:      0.00000      -0.49011      -0.00000
Nuclear contribution   :      0.00000       0.00000       0.00000
                        -----------------------------------------
Total Dipole Moment    :      0.00000      -0.49011      -0.00000
                        -----------------------------------------
Magnitude (a.u.)       :      0.49011
Magnitude (Debye)      :      1.24576

Rotational constants in cm-1:     0.024853     0.024853     0.012427
Rotational constants in MHz :   745.088417   745.088311   372.544182

                             ****ORCA TERMINATED NORMALLY****
TOTAL RUN TIME: 0 days 0 hours 0 minutes 9 seconds 636 msec
