                         Program Version 4.2.0 -  RELEASE  -
|  1> #
|  2> # Au03C1_D3H TPSSh-D3BJ/Def2-TZVPPD
|  3> #
|  4> ! tpssh d3bj def2-tzvppd def2/jk grid4 nofinalgrid
|  5>
|  6> *xyz 1 1
|  7> Au       0.000000    1.501400   -0.000000
|  8> Au       1.300251   -0.750700   -0.000000
|  9> Au      -1.300251   -0.750700   -0.000000
| 10> *
| 11>
| 12> %maxcore 5000
| 13>
| 14> %pal
| 15> nprocs = 24
| 16> end
| 17>
| 18>
| 19>                          ****END OF INPUT****

CARTESIAN COORDINATES (ANGSTROEM)
---------------------------------
  Au     0.000000    1.501400   -0.000000
  Au     1.300251   -0.750700   -0.000000
  Au    -1.300251   -0.750700   -0.000000

 Total Charge           Charge          ....    1
 Multiplicity           Mult            ....    1
 Number of Electrons    NEL             ....   56
 Basis Dimension        Dim             ....  177

ORBITAL ENERGIES
----------------

  NO   OCC          E(Eh)            E(eV)
   0   2.0000      -4.294275      -116.8532
   1   2.0000      -4.293711      -116.8378
   2   2.0000      -4.293710      -116.8378
   3   2.0000      -2.497328       -67.9557
   4   2.0000      -2.490358       -67.7661
   5   2.0000      -2.490352       -67.7659
   6   2.0000      -2.484778       -67.6142
   7   2.0000      -2.484762       -67.6138
   8   2.0000      -2.482924       -67.5638
   9   2.0000      -2.480273       -67.4917
  10   2.0000      -2.479265       -67.4642
  11   2.0000      -2.479262       -67.4641
  12   2.0000      -0.584674       -15.9098
  13   2.0000      -0.543826       -14.7982
  14   2.0000      -0.543822       -14.7981
  15   2.0000      -0.533762       -14.5244
  16   2.0000      -0.513125       -13.9628
  17   2.0000      -0.502339       -13.6693
  18   2.0000      -0.502334       -13.6692
  19   2.0000      -0.473157       -12.8753
  20   2.0000      -0.473155       -12.8752
  21   2.0000      -0.467789       -12.7292
  22   2.0000      -0.466348       -12.6900
  23   2.0000      -0.466338       -12.6897
  24   2.0000      -0.464714       -12.6455
  25   2.0000      -0.463874       -12.6226
  26   2.0000      -0.463872       -12.6226
  27   2.0000      -0.438549       -11.9335
  28   0.0000      -0.323622        -8.8062
  29   0.0000      -0.323622        -8.8062
  30   0.0000      -0.212928        -5.7941
  31   0.0000      -0.186157        -5.0656
  32   0.0000      -0.171446        -4.6653

MULLIKEN ATOMIC CHARGES
-----------------------
   0 Au:    0.333361
   1 Au:    0.333323
   2 Au:    0.333316
Sum of atomic charges:    1.0000000

LOEWDIN ATOMIC CHARGES
----------------------
   0 Au:    0.333330
   1 Au:    0.333335
   2 Au:    0.333335

  Mayer bond orders larger than 0.100000
B(  0-Au,  1-Au) :   0.6749 B(  0-Au,  2-Au) :   0.6749 B(  1-Au,  2-Au) :   0.6750

Dispersion correction           -0.005875628
FINAL SINGLE POINT ENERGY      -406.866889929979

DIPOLE MOMENT
-------------
                                X             Y             Z
Electronic contribution:      0.00000      -0.00005       0.00000
Nuclear contribution   :      0.00000       0.00000      -0.00000
                        -----------------------------------------
Total Dipole Moment    :      0.00000      -0.00005       0.00000
                        -----------------------------------------
Magnitude (a.u.)       :      0.00005
Magnitude (Debye)      :      0.00012

Rotational constants in cm-1:     0.025312     0.025312     0.012656
Rotational constants in MHz :   758.824167   758.823632   379.411950

                             ****ORCA TERMINATED NORMALLY****
TOTAL RUN TIME: 0 days 0 hours 0 minutes 8 seconds 734 msec
