                         Program Version 4.2.0 -  RELEASE  -
|  1> #
|  2> # Au03N0_LIN TPSSh-D3BJ/Def2-TZVPPD
|  3> #
|  4> ! tpssh d3bj def2-tzvppd def2/jk grid4 nofinalgrid
|  5>
|  6> *xyz 0 2
|  7> Au       0.000000    0.000000    0.000000
|  8> Au       0.000000    0.000000    2.547414
|  9> Au       0.000000    0.000000   -2.547414
| 10> *
| 11>
| 12> %maxcore 5000
| 13>
| 14> %pal
| 15> nprocs = 24
| 16> end
| 17>
| 18>
| 19>                          ****END OF INPUT****

CARTESIAN COORDINATES (ANGSTROEM)
---------------------------------
  Au     0.000000    0.000000    0.000000
  Au     0.000000    0.000000    2.547414
  Au     0.000000    0.000000   -2.547414

 Total Charge           Charge          ....    0
 Multiplicity           Mult            ....    2
 Number of Electrons    NEL             ....   57
 Basis Dimension        Dim             ....  177

ORBITAL ENERGIES
----------------
                 SPIN UP ORBITALS
  NO   OCC          E(Eh)            E(eV)
   0   1.0000      -4.091254      -111.3287
   1   1.0000      -4.091245      -111.3284
   2   1.0000      -4.078344      -110.9774
   3   1.0000      -2.291040       -62.3424
   4   1.0000      -2.287868       -62.2560
   5   1.0000      -2.279663       -62.0328
   6   1.0000      -2.279663       -62.0328
   7   1.0000      -2.279641       -62.0322
   8   1.0000      -2.279641       -62.0322
   9   1.0000      -2.274318       -61.8873
  10   1.0000      -2.263953       -61.6053
  11   1.0000      -2.263953       -61.6053
  12   1.0000      -0.378187       -10.2910
  13   1.0000      -0.327595        -8.9143
  14   1.0000      -0.327595        -8.9143
  15   1.0000      -0.303059        -8.2467
  16   1.0000      -0.297622        -8.0987
  17   1.0000      -0.297622        -8.0987
  18   1.0000      -0.290307        -7.8997
  19   1.0000      -0.290295        -7.8993
  20   1.0000      -0.287761        -7.8304
  21   1.0000      -0.287750        -7.8301
  22   1.0000      -0.265345        -7.2204
  23   1.0000      -0.262753        -7.1499
  24   1.0000      -0.262737        -7.1494
  25   1.0000      -0.245816        -6.6890
  26   1.0000      -0.245816        -6.6890
  27   1.0000      -0.239976        -6.5301
  28   1.0000      -0.236208        -6.4275
  29   0.0000      -0.110853        -3.0165
  30   0.0000      -0.041869        -1.1393
  31   0.0000      -0.041869        -1.1393
  32   0.0000      -0.020164        -0.5487
  33   0.0000      -0.002261        -0.0615

                 SPIN DOWN ORBITALS
  NO   OCC          E(Eh)            E(eV)
   0   1.0000      -4.090371      -111.3047
   1   1.0000      -4.090361      -111.3044
   2   1.0000      -4.078617      -110.9848
   3   1.0000      -2.290214       -62.3199
   4   1.0000      -2.286786       -62.2266
   5   1.0000      -2.279284       -62.0225
   6   1.0000      -2.279284       -62.0225
   7   1.0000      -2.279253       -62.0216
   8   1.0000      -2.279253       -62.0216
   9   1.0000      -2.274377       -61.8890
  10   1.0000      -2.264425       -61.6181
  11   1.0000      -2.264425       -61.6181
  12   1.0000      -0.374796       -10.1987
  13   1.0000      -0.324003        -8.8166
  14   1.0000      -0.324003        -8.8166
  15   1.0000      -0.299612        -8.1528
  16   1.0000      -0.292501        -7.9594
  17   1.0000      -0.292501        -7.9594
  18   1.0000      -0.283624        -7.7178
  19   1.0000      -0.283612        -7.7175
  20   1.0000      -0.280197        -7.6245
  21   1.0000      -0.280185        -7.6242
  22   1.0000      -0.262206        -7.1350
  23   1.0000      -0.262190        -7.1345
  24   1.0000      -0.246834        -6.7167
  25   1.0000      -0.244095        -6.6422
  26   1.0000      -0.244095        -6.6422
  27   1.0000      -0.238912        -6.5011
  28   0.0000      -0.198914        -5.4127
  29   0.0000      -0.100134        -2.7248
  30   0.0000      -0.033021        -0.8986
  31   0.0000      -0.033021        -0.8986
  32   0.0000      -0.009727        -0.2647

MULLIKEN ATOMIC CHARGES AND SPIN POPULATIONS
--------------------------------------------
   0 Au:   -0.149608    0.001660
   1 Au:    0.074799    0.499171
   2 Au:    0.074809    0.499170
Sum of atomic charges         :   -0.0000000

LOEWDIN ATOMIC CHARGES AND SPIN POPULATIONS
-------------------------------------------
   0 Au:   -0.185375    0.277776
   1 Au:    0.092688    0.361112
   2 Au:    0.092688    0.361112

  Mayer bond orders larger than 0.100000
B(  0-Au,  1-Au) :   0.7121 B(  0-Au,  2-Au) :   0.7121 B(  1-Au,  2-Au) :   0.3013

Dispersion correction           -0.004726642
FINAL SINGLE POINT ENERGY      -407.112882144965

DIPOLE MOMENT
-------------
                                X             Y             Z
Electronic contribution:      0.00000      -0.00000       0.00000
Nuclear contribution   :      0.00000       0.00000       0.00000
                        -----------------------------------------
Total Dipole Moment    :      0.00000      -0.00000       0.00000
                        -----------------------------------------
Magnitude (a.u.)       :      0.00000
Magnitude (Debye)      :      0.00001

Rotational constants in cm-1:     0.000000     0.006594     0.006594
Rotational constants in MHz :     0.000000   197.695224   197.695224

                             ****ORCA TERMINATED NORMALLY****
TOTAL RUN TIME: 0 days 0 hours 0 minutes 11 seconds 274 msec
