                         Program Version 4.2.0 -  RELEASE  -
|  1> #
|  2> # Au04C2_NH3_A TPSSh-D3BJ/Def2-TZVPPD
|  3> #
|  4> ! tpssh d3bj def2-tzvppd def2/jk grid4 nofinalgrid
|  5>
|  6> *xyz 2 1
|  7> Au      -0.274490    1.572639   -0.000000
|  8> Au       1.635934   -0.418177    0.000000
|  9> Au      -0.639028   -0.815642    1.333593
| 10> Au      -0.639028   -0.815642   -1.333593
| 11> N       -0.639028    3.654013   -0.000000
| 12> H       -0.235750    4.112347    0.824759
| 13> H       -0.235750    4.112347   -0.824759
| 14> H       -1.642949    3.866239   -0.000000
| 15> *
| 16>
| 17> %maxcore 5000
| 18>
| 19> %pal
| 20> nprocs = 24
| 21> end
| 22>
| 23>
| 24>                          ****END OF INPUT****

CARTESIAN COORDINATES (ANGSTROEM)
---------------------------------
  Au    -0.274490    1.572639   -0.000000
  Au     1.635934   -0.418177    0.000000
  Au    -0.639028   -0.815642    1.333593
  Au    -0.639028   -0.815642   -1.333593
  N     -0.639028    3.654013   -0.000000
  H     -0.235750    4.112347    0.824759
  H     -0.235750    4.112347   -0.824759
  H     -1.642949    3.866239   -0.000000

 Total Charge           Charge          ....    2
 Multiplicity           Mult            ....    1
 Number of Electrons    NEL             ....   84
 Basis Dimension        Dim             ....  324

ORBITAL ENERGIES
----------------

  NO   OCC          E(Eh)            E(eV)
   0   2.0000     -14.618962      -397.8022
   1   2.0000      -4.443172      -120.9048
   2   2.0000      -4.442776      -120.8941
   3   2.0000      -4.442762      -120.8937
   4   2.0000      -4.441457      -120.8582
   5   2.0000      -2.644956       -71.9729
   6   2.0000      -2.639738       -71.8309
   7   2.0000      -2.638439       -71.7956
   8   2.0000      -2.638430       -71.7953
   9   2.0000      -2.632775       -71.6414
  10   2.0000      -2.632773       -71.6414
  11   2.0000      -2.631201       -71.5986
  12   2.0000      -2.630612       -71.5826
  13   2.0000      -2.630597       -71.5822
  14   2.0000      -2.630581       -71.5818
  15   2.0000      -2.625795       -71.4515
  16   2.0000      -2.625786       -71.4513
  17   2.0000      -1.200792       -32.6752
  18   2.0000      -0.805755       -21.9257
  19   2.0000      -0.805746       -21.9255
  20   2.0000      -0.766697       -20.8629
  21   2.0000      -0.715868       -19.4798
  22   2.0000      -0.691707       -18.8223
  23   2.0000      -0.691667       -18.8212
  24   2.0000      -0.683319       -18.5941
  25   2.0000      -0.672664       -18.3041
  26   2.0000      -0.672662       -18.3041
  27   2.0000      -0.655512       -17.8374
  28   2.0000      -0.649230       -17.6664
  29   2.0000      -0.649228       -17.6664
  30   2.0000      -0.639363       -17.3980
  31   2.0000      -0.619258       -16.8509
  32   2.0000      -0.619246       -16.8505
  33   2.0000      -0.616345       -16.7716
  34   2.0000      -0.616080       -16.7644
  35   2.0000      -0.616078       -16.7643
  36   2.0000      -0.613559       -16.6958
  37   2.0000      -0.613553       -16.6956
  38   2.0000      -0.589381       -16.0379
  39   2.0000      -0.589371       -16.0376
  40   2.0000      -0.588536       -16.0149
  41   2.0000      -0.583501       -15.8779
  42   0.0000      -0.462505       -12.5854
  43   0.0000      -0.462487       -12.5849
  44   0.0000      -0.415378       -11.3030
  45   0.0000      -0.316277        -8.6063
  46   0.0000      -0.309671        -8.4266

MULLIKEN ATOMIC CHARGES
-----------------------
   0 Au:    0.248086
   1 Au:    0.417166
   2 Au:    0.417107
   3 Au:    0.417112
   4 N :   -0.250038
   5 H :    0.250208
   6 H :    0.250208
   7 H :    0.250150
Sum of atomic charges:    2.0000000

LOEWDIN ATOMIC CHARGES
----------------------
   0 Au:    0.422545
   1 Au:    0.449995
   2 Au:    0.450024
   3 Au:    0.450024
   4 N :    0.398760
   5 H :   -0.057117
   6 H :   -0.057117
   7 H :   -0.057116

  Mayer bond orders larger than 0.100000
B(  0-Au,  1-Au) :   0.3417 B(  0-Au,  2-Au) :   0.3417 B(  0-Au,  3-Au) :   0.3417
B(  0-Au,  4-N ) :   0.6707 B(  1-Au,  2-Au) :   0.5445 B(  1-Au,  3-Au) :   0.5445
B(  2-Au,  3-Au) :   0.5442 B(  4-N ,  5-H ) :   0.9455 B(  4-N ,  6-H ) :   0.9455
B(  4-N ,  7-H ) :   0.9456

Dispersion correction           -0.016029782
FINAL SINGLE POINT ENERGY      -598.853279631252

DIPOLE MOMENT
-------------
                                X             Y             Z
Electronic contribution:     10.06714     -57.56712       0.00000
Nuclear contribution   :    -10.53350      60.23199       0.00000
                        -----------------------------------------
Total Dipole Moment    :     -0.46636       2.66487       0.00000
                        -----------------------------------------
Magnitude (a.u.)       :      2.70537
Magnitude (Debye)      :      6.87650

Rotational constants in cm-1:     0.012010     0.009744     0.009743
Rotational constants in MHz :   360.039216   292.121240   292.077350

                             ****ORCA TERMINATED NORMALLY****
TOTAL RUN TIME: 0 days 0 hours 0 minutes 22 seconds 76 msec
