                         Program Version 4.2.0 -  RELEASE  -
|  1> #
|  2> # Au04C2_H_F TPSSh-D3BJ/Def2-TZVPPD
|  3> #
|  4> ! tpssh d3bj def2-tzvppd def2/jk grid4 nofinalgrid
|  5>
|  6> *xyz 2 2
|  7> Au       0.000000    1.567068   -0.568281
|  8> Au       1.357120   -0.783534   -0.568281
|  9> Au      -1.357120   -0.783534   -0.568281
| 10> Au       0.000000    0.000000    1.725922
| 11> H        0.000000    0.000000   -1.665144
| 12> *
| 13>
| 14> %maxcore 5000
| 15>
| 16> %pal
| 17> nprocs = 24
| 18> end
| 19>
| 20>
| 21>                          ****END OF INPUT****

CARTESIAN COORDINATES (ANGSTROEM)
---------------------------------
  Au     0.000000    1.567068   -0.568281
  Au     1.357120   -0.783534   -0.568281
  Au    -1.357120   -0.783534   -0.568281
  Au     0.000000    0.000000    1.725922
  H      0.000000    0.000000   -1.665144

 Total Charge           Charge          ....    2
 Multiplicity           Mult            ....    2
 Number of Electrons    NEL             ....   75
 Basis Dimension        Dim             ....  253

ORBITAL ENERGIES
----------------
                 SPIN UP ORBITALS
  NO   OCC          E(Eh)            E(eV)
   0   1.0000      -4.501701      -122.4975
   1   1.0000      -4.501395      -122.4892
   2   1.0000      -4.501394      -122.4892
   3   1.0000      -4.466047      -121.5273
   4   1.0000      -2.703014       -73.5528
   5   1.0000      -2.697827       -73.4116
   6   1.0000      -2.697826       -73.4116
   7   1.0000      -2.691509       -73.2397
   8   1.0000      -2.690720       -73.2182
   9   1.0000      -2.690718       -73.2181
  10   1.0000      -2.689260       -73.1785
  11   1.0000      -2.689254       -73.1783
  12   1.0000      -2.687429       -73.1286
  13   1.0000      -2.661136       -72.4132
  14   1.0000      -2.653852       -72.2150
  15   1.0000      -2.653851       -72.2149
  16   1.0000      -0.865228       -23.5441
  17   1.0000      -0.781972       -21.2785
  18   1.0000      -0.741631       -20.1808
  19   1.0000      -0.741629       -20.1807
  20   1.0000      -0.722081       -19.6488
  21   1.0000      -0.722079       -19.6488
  22   1.0000      -0.717874       -19.5343
  23   1.0000      -0.700999       -19.0752
  24   1.0000      -0.699743       -19.0410
  25   1.0000      -0.699743       -19.0410
  26   1.0000      -0.679901       -18.5011
  27   1.0000      -0.679893       -18.5008
  28   1.0000      -0.675068       -18.3695
  29   1.0000      -0.675067       -18.3695
  30   1.0000      -0.673151       -18.3174
  31   1.0000      -0.650708       -17.7067
  32   1.0000      -0.649490       -17.6735
  33   1.0000      -0.649483       -17.6733
  34   1.0000      -0.647618       -17.6226
  35   1.0000      -0.635734       -17.2992
  36   1.0000      -0.635730       -17.2991
  37   1.0000      -0.559282       -15.2188
  38   0.0000      -0.510751       -13.8982
  39   0.0000      -0.510750       -13.8982
  40   0.0000      -0.438464       -11.9312
  41   0.0000      -0.358935        -9.7671
  42   0.0000      -0.348043        -9.4707

                 SPIN DOWN ORBITALS
  NO   OCC          E(Eh)            E(eV)
   0   1.0000      -4.499283      -122.4317
   1   1.0000      -4.498982      -122.4235
   2   1.0000      -4.498981      -122.4235
   3   1.0000      -4.464503      -121.4853
   4   1.0000      -2.699077       -73.4456
   5   1.0000      -2.694048       -73.3088
   6   1.0000      -2.694047       -73.3087
   7   1.0000      -2.688558       -73.1594
   8   1.0000      -2.688555       -73.1593
   9   1.0000      -2.687597       -73.1332
  10   1.0000      -2.686841       -73.1127
  11   1.0000      -2.686791       -73.1113
  12   1.0000      -2.686791       -73.1113
  13   1.0000      -2.659454       -72.3674
  14   1.0000      -2.652498       -72.1781
  15   1.0000      -2.652496       -72.1781
  16   1.0000      -0.849366       -23.1124
  17   1.0000      -0.774591       -21.0777
  18   1.0000      -0.740585       -20.1524
  19   1.0000      -0.740584       -20.1523
  20   1.0000      -0.716744       -19.5036
  21   1.0000      -0.716742       -19.5035
  22   1.0000      -0.712558       -19.3897
  23   1.0000      -0.698042       -18.9947
  24   1.0000      -0.696665       -18.9572
  25   1.0000      -0.696665       -18.9572
  26   1.0000      -0.674821       -18.3628
  27   1.0000      -0.674818       -18.3627
  28   1.0000      -0.672327       -18.2949
  29   1.0000      -0.672316       -18.2946
  30   1.0000      -0.671221       -18.2649
  31   1.0000      -0.646186       -17.5836
  32   1.0000      -0.645160       -17.5557
  33   1.0000      -0.645153       -17.5555
  34   1.0000      -0.643354       -17.5066
  35   1.0000      -0.629579       -17.1317
  36   1.0000      -0.629574       -17.1316
  37   0.0000      -0.519255       -14.1296
  38   0.0000      -0.506614       -13.7857
  39   0.0000      -0.506614       -13.7857
  40   0.0000      -0.420365       -11.4387
  41   0.0000      -0.349576        -9.5124

MULLIKEN ATOMIC CHARGES AND SPIN POPULATIONS
--------------------------------------------
   0 Au:    0.472050    0.098003
   1 Au:    0.472132    0.098004
   2 Au:    0.472131    0.098004
   3 Au:    0.341019    0.476463
   4 H :    0.242668    0.229526
Sum of atomic charges         :    2.0000000

LOEWDIN ATOMIC CHARGES AND SPIN POPULATIONS
-------------------------------------------
   0 Au:    0.561833    0.187170
   1 Au:    0.561828    0.187170
   2 Au:    0.561828    0.187170
   3 Au:    0.456608    0.299919
   4 H :   -0.142097    0.138571

  Mayer bond orders larger than 0.100000
B(  0-Au,  1-Au) :   0.4930 B(  0-Au,  2-Au) :   0.4930 B(  0-Au,  3-Au) :   0.4624
B(  0-Au,  4-H ) :   0.2483 B(  1-Au,  2-Au) :   0.4930 B(  1-Au,  3-Au) :   0.4623
B(  1-Au,  4-H ) :   0.2484 B(  2-Au,  3-Au) :   0.4623 B(  2-Au,  4-H ) :   0.2484

Dispersion correction           -0.013501561
FINAL SINGLE POINT ENERGY      -542.699136412160

DIPOLE MOMENT
-------------
                                X             Y             Z
Electronic contribution:     -0.00000      -0.00004       2.34024
Nuclear contribution   :      0.00000       0.00000      -2.84605
                        -----------------------------------------
Total Dipole Moment    :     -0.00000      -0.00004      -0.50581
                        -----------------------------------------
Magnitude (a.u.)       :      0.50581
Magnitude (Debye)      :      1.28568

Rotational constants in cm-1:     0.011617     0.011195     0.011195
Rotational constants in MHz :   348.279987   335.605170   335.605004

                             ****ORCA TERMINATED NORMALLY****
TOTAL RUN TIME: 0 days 0 hours 0 minutes 20 seconds 419 msec
