                         Program Version 4.2.0 -  RELEASE  -
|  1> #
|  2> # Au04C2_NH3_F TPSSh-D3BJ/Def2-TZVPPD
|  3> #
|  4> ! tpssh d3bj def2-tzvppd def2/jk grid4 nofinalgrid
|  5>
|  6> *xyz 2 1
|  7> Au       0.000000    1.548281   -0.453246
|  8> Au       1.340851   -0.774141   -0.453246
|  9> Au      -1.340851   -0.774141   -0.453246
| 10> Au       0.000000    0.000000    1.783664
| 11> N        0.000000    0.000000   -3.226055
| 12> H       -0.813891    0.469900   -3.635956
| 13> H        0.813891    0.469900   -3.635956
| 14> H       -0.000000   -0.939800   -3.635956
| 15> *
| 16>
| 17> %maxcore 5000
| 18>
| 19> %pal
| 20> nprocs = 24
| 21> end
| 22>
| 23>
| 24>                          ****END OF INPUT****

CARTESIAN COORDINATES (ANGSTROEM)
---------------------------------
  Au     0.000000    1.548281   -0.453246
  Au     1.340851   -0.774141   -0.453246
  Au    -1.340851   -0.774141   -0.453246
  Au     0.000000    0.000000    1.783664
  N      0.000000    0.000000   -3.226055
  H     -0.813891    0.469900   -3.635956
  H      0.813891    0.469900   -3.635956
  H     -0.000000   -0.939800   -3.635956

 Total Charge           Charge          ....    2
 Multiplicity           Mult            ....    1
 Number of Electrons    NEL             ....   84
 Basis Dimension        Dim             ....  324

ORBITAL ENERGIES
----------------

  NO   OCC          E(Eh)            E(eV)
   0   2.0000     -14.559324      -396.1794
   1   2.0000      -4.453105      -121.1752
   2   2.0000      -4.452739      -121.1652
   3   2.0000      -4.452738      -121.1652
   4   2.0000      -4.447371      -121.0191
   5   2.0000      -2.653850       -72.2149
   6   2.0000      -2.648241       -72.0623
   7   2.0000      -2.648238       -72.0622
   8   2.0000      -2.644480       -71.9600
   9   2.0000      -2.643201       -71.9252
  10   2.0000      -2.643190       -71.9249
  11   2.0000      -2.641075       -71.8673
  12   2.0000      -2.640853       -71.8613
  13   2.0000      -2.640853       -71.8613
  14   2.0000      -2.640364       -71.8480
  15   2.0000      -2.635922       -71.7271
  16   2.0000      -2.635919       -71.7270
  17   2.0000      -1.147071       -31.2134
  18   2.0000      -0.760345       -20.6900
  19   2.0000      -0.752730       -20.4828
  20   2.0000      -0.752729       -20.4828
  21   2.0000      -0.707797       -19.2601
  22   2.0000      -0.703751       -19.1500
  23   2.0000      -0.703750       -19.1500
  24   2.0000      -0.684820       -18.6349
  25   2.0000      -0.684818       -18.6348
  26   2.0000      -0.667946       -18.1757
  27   2.0000      -0.661513       -18.0007
  28   2.0000      -0.661509       -18.0006
  29   2.0000      -0.658043       -17.9063
  30   2.0000      -0.629700       -17.1350
  31   2.0000      -0.629699       -17.1350
  32   2.0000      -0.627908       -17.0862
  33   2.0000      -0.627506       -17.0753
  34   2.0000      -0.626593       -17.0505
  35   2.0000      -0.626589       -17.0503
  36   2.0000      -0.624766       -17.0007
  37   2.0000      -0.624760       -17.0006
  38   2.0000      -0.599479       -16.3127
  39   2.0000      -0.598676       -16.2908
  40   2.0000      -0.598675       -16.2908
  41   2.0000      -0.575122       -15.6499
  42   0.0000      -0.472594       -12.8599
  43   0.0000      -0.472593       -12.8599
  44   0.0000      -0.461580       -12.5602
  45   0.0000      -0.331250        -9.0138
  46   0.0000      -0.320654        -8.7254

MULLIKEN ATOMIC CHARGES
-----------------------
   0 Au:    0.466187
   1 Au:    0.465692
   2 Au:    0.465687
   3 Au:    0.402548
   4 N :   -0.355452
   5 H :    0.185226
   6 H :    0.185225
   7 H :    0.184887
Sum of atomic charges:    2.0000000

LOEWDIN ATOMIC CHARGES
----------------------
   0 Au:    0.462189
   1 Au:    0.462158
   2 Au:    0.462158
   3 Au:    0.465118
   4 N :    0.443708
   5 H :   -0.098441
   6 H :   -0.098441
   7 H :   -0.098449

  Mayer bond orders larger than 0.100000
B(  0-Au,  1-Au) :   0.4625 B(  0-Au,  2-Au) :   0.4625 B(  0-Au,  3-Au) :   0.4716
B(  1-Au,  2-Au) :   0.4627 B(  1-Au,  3-Au) :   0.4716 B(  2-Au,  3-Au) :   0.4716
B(  4-N ,  5-H ) :   0.9995 B(  4-N ,  6-H ) :   0.9995 B(  4-N ,  7-H ) :   1.0001

Dispersion correction           -0.017720495
FINAL SINGLE POINT ENERGY      -598.786979434716

DIPOLE MOMENT
-------------
                                X             Y             Z
Electronic contribution:      0.00000      -0.00001      51.59587
Nuclear contribution   :      0.00000       0.00000     -53.58194
                        -----------------------------------------
Total Dipole Moment    :      0.00000      -0.00000      -1.98607
                        -----------------------------------------
Magnitude (a.u.)       :      1.98607
Magnitude (Debye)      :      5.04818

Rotational constants in cm-1:     0.011879     0.010264     0.010264
Rotational constants in MHz :   356.111583   307.700803   307.700796

                             ****ORCA TERMINATED NORMALLY****
TOTAL RUN TIME: 0 days 0 hours 0 minutes 26 seconds 15 msec
