                         Program Version 4.2.0 -  RELEASE  -
|  1> #
|  2> # Au04C2 TPSSh-D3BJ/Def2-TZVPPD
|  3> #
|  4> ! tpssh d3bj def2-tzvppd def2/jk grid4 nofinalgrid
|  5>
|  6> *xyz 2 1
|  7> Au      -0.000000   -0.000044    1.659420
|  8> Au      -1.354966    0.782292   -0.553161
|  9> Au       1.354966    0.782292   -0.553161
| 10> Au       0.000000   -1.564540   -0.553099
| 11> *
| 12>
| 13> %maxcore 5000
| 14>
| 15> %pal
| 16> nprocs = 24
| 17> end
| 18>
| 19>
| 20>                          ****END OF INPUT****

CARTESIAN COORDINATES (ANGSTROEM)
---------------------------------
  Au    -0.000000   -0.000044    1.659420
  Au    -1.354966    0.782292   -0.553161
  Au     1.354966    0.782292   -0.553161
  Au     0.000000   -1.564540   -0.553099

 Total Charge           Charge          ....    2
 Multiplicity           Mult            ....    1
 Number of Electrons    NEL             ....   74
 Basis Dimension        Dim             ....  236

ORBITAL ENERGIES
----------------

  NO   OCC          E(Eh)            E(eV)
   0   2.0000      -4.480889      -121.9312
   1   2.0000      -4.480480      -121.9201
   2   2.0000      -4.480477      -121.9200
   3   2.0000      -4.480474      -121.9199
   4   2.0000      -2.682157       -72.9852
   5   2.0000      -2.676218       -72.8236
   6   2.0000      -2.676218       -72.8236
   7   2.0000      -2.676213       -72.8235
   8   2.0000      -2.670698       -72.6734
   9   2.0000      -2.670692       -72.6732
  10   2.0000      -2.669613       -72.6439
  11   2.0000      -2.669606       -72.6437
  12   2.0000      -2.669602       -72.6436
  13   2.0000      -2.668101       -72.6027
  14   2.0000      -2.668099       -72.6027
  15   2.0000      -2.668092       -72.6025
  16   2.0000      -0.787347       -21.4248
  17   2.0000      -0.732156       -19.9230
  18   2.0000      -0.732151       -19.9228
  19   2.0000      -0.732149       -19.9228
  20   2.0000      -0.713082       -19.4040
  21   2.0000      -0.713082       -19.4039
  22   2.0000      -0.691036       -18.8041
  23   2.0000      -0.691031       -18.8039
  24   2.0000      -0.691028       -18.8038
  25   2.0000      -0.676282       -18.4026
  26   2.0000      -0.657301       -17.8861
  27   2.0000      -0.657299       -17.8860
  28   2.0000      -0.657298       -17.8860
  29   2.0000      -0.655747       -17.8438
  30   2.0000      -0.655742       -17.8436
  31   2.0000      -0.655741       -17.8436
  32   2.0000      -0.654294       -17.8043
  33   2.0000      -0.654287       -17.8041
  34   2.0000      -0.627935       -17.0870
  35   2.0000      -0.627934       -17.0869
  36   2.0000      -0.627928       -17.0868
  37   0.0000      -0.496589       -13.5129
  38   0.0000      -0.496585       -13.5128
  39   0.0000      -0.496582       -13.5127
  40   0.0000      -0.349663        -9.5148
  41   0.0000      -0.340758        -9.2725

MULLIKEN ATOMIC CHARGES
-----------------------
   0 Au:    0.499924
   1 Au:    0.500060
   2 Au:    0.500053
   3 Au:    0.499962
Sum of atomic charges:    2.0000000

LOEWDIN ATOMIC CHARGES
----------------------
   0 Au:    0.499982
   1 Au:    0.500006
   2 Au:    0.500006
   3 Au:    0.500005

  Mayer bond orders larger than 0.100000
B(  0-Au,  1-Au) :   0.4784 B(  0-Au,  2-Au) :   0.4784 B(  0-Au,  3-Au) :   0.4785
B(  1-Au,  2-Au) :   0.4784 B(  1-Au,  3-Au) :   0.4784 B(  2-Au,  3-Au) :   0.4785

Dispersion correction           -0.011706816
FINAL SINGLE POINT ENERGY      -542.156320412929

DIPOLE MOMENT
-------------
                                X             Y             Z
Electronic contribution:      0.00000       0.00004      -0.00001
Nuclear contribution   :      0.00000       0.00000       0.00000
                        -----------------------------------------
Total Dipole Moment    :      0.00000       0.00004      -0.00001
                        -----------------------------------------
Magnitude (a.u.)       :      0.00004
Magnitude (Debye)      :      0.00010

Rotational constants in cm-1:     0.011655     0.011655     0.011654
Rotational constants in MHz :   349.408482   349.408217   349.388110

                             ****ORCA TERMINATED NORMALLY****
TOTAL RUN TIME: 0 days 0 hours 0 minutes 15 seconds 870 msec
