                         Program Version 4.2.0 -  RELEASE  -
|  1> #
|  2> # Au04C2_H_A TPSSh-D3BJ/Def2-TZVPPD
|  3> #
|  4> ! tpssh d3bj def2-tzvppd def2/jk grid4 nofinalgrid
|  5>
|  6> *xyz 2 2
|  7> Au       0.000000    0.000000    1.750714
|  8> Au      -0.000000    1.549973   -0.597614
|  9> Au       1.342316   -0.774986   -0.597614
| 10> Au      -1.342316   -0.774986   -0.597614
| 11> H        0.000000    0.000000    3.328141
| 12> *
| 13>
| 14> %maxcore 5000
| 15>
| 16> %pal
| 17> nprocs = 24
| 18> end
| 19>
| 20>
| 21>                          ****END OF INPUT****

CARTESIAN COORDINATES (ANGSTROEM)
---------------------------------
  Au     0.000000    0.000000    1.750714
  Au    -0.000000    1.549973   -0.597614
  Au     1.342316   -0.774986   -0.597614
  Au    -1.342316   -0.774986   -0.597614
  H      0.000000    0.000000    3.328141

 Total Charge           Charge          ....    2
 Multiplicity           Mult            ....    2
 Number of Electrons    NEL             ....   75
 Basis Dimension        Dim             ....  253

ORBITAL ENERGIES
----------------
                 SPIN UP ORBITALS
  NO   OCC          E(Eh)            E(eV)
   0   1.0000      -4.515095      -122.8620
   1   1.0000      -4.482628      -121.9785
   2   1.0000      -4.482274      -121.9689
   3   1.0000      -4.482272      -121.9688
   4   1.0000      -2.719305       -73.9961
   5   1.0000      -2.696766       -73.3827
   6   1.0000      -2.696764       -73.3827
   7   1.0000      -2.682998       -73.0081
   8   1.0000      -2.677714       -72.8643
   9   1.0000      -2.677710       -72.8642
  10   1.0000      -2.671823       -72.7040
  11   1.0000      -2.671813       -72.7037
  12   1.0000      -2.671573       -72.6972
  13   1.0000      -2.670417       -72.6657
  14   1.0000      -2.670417       -72.6657
  15   1.0000      -2.669650       -72.6449
  16   1.0000      -0.823784       -22.4163
  17   1.0000      -0.755065       -20.5464
  18   1.0000      -0.737682       -20.0734
  19   1.0000      -0.737679       -20.0733
  20   1.0000      -0.720742       -19.6124
  21   1.0000      -0.719259       -19.5720
  22   1.0000      -0.719258       -19.5720
  23   1.0000      -0.700425       -19.0595
  24   1.0000      -0.700420       -19.0594
  25   1.0000      -0.694080       -18.8869
  26   1.0000      -0.682455       -18.5706
  27   1.0000      -0.673130       -18.3168
  28   1.0000      -0.673129       -18.3168
  29   1.0000      -0.657981       -17.9046
  30   1.0000      -0.657979       -17.9045
  31   1.0000      -0.655919       -17.8485
  32   1.0000      -0.655529       -17.8379
  33   1.0000      -0.655525       -17.8378
  34   1.0000      -0.643250       -17.5037
  35   1.0000      -0.643246       -17.5036
  36   1.0000      -0.627461       -17.0741
  37   1.0000      -0.621146       -16.9022
  38   0.0000      -0.498562       -13.5666
  39   0.0000      -0.498561       -13.5665
  40   0.0000      -0.435321       -11.8457
  41   0.0000      -0.346737        -9.4352
  42   0.0000      -0.346736        -9.4352

                 SPIN DOWN ORBITALS
  NO   OCC          E(Eh)            E(eV)
   0   1.0000      -4.508621      -122.6858
   1   1.0000      -4.482170      -121.9660
   2   1.0000      -4.481817      -121.9564
   3   1.0000      -4.481815      -121.9564
   4   1.0000      -2.705868       -73.6304
   5   1.0000      -2.692868       -73.2767
   6   1.0000      -2.692868       -73.2767
   7   1.0000      -2.682266       -72.9882
   8   1.0000      -2.677081       -72.8471
   9   1.0000      -2.677077       -72.8470
  10   1.0000      -2.671605       -72.6981
  11   1.0000      -2.671594       -72.6978
  12   1.0000      -2.670770       -72.6753
  13   1.0000      -2.669718       -72.6467
  14   1.0000      -2.669717       -72.6467
  15   1.0000      -2.669566       -72.6426
  16   1.0000      -0.806807       -21.9543
  17   1.0000      -0.746942       -20.3253
  18   1.0000      -0.735603       -20.0168
  19   1.0000      -0.735601       -20.0167
  20   1.0000      -0.717074       -19.5126
  21   1.0000      -0.717072       -19.5125
  22   1.0000      -0.708841       -19.2886
  23   1.0000      -0.692349       -18.8398
  24   1.0000      -0.692345       -18.8397
  25   1.0000      -0.692043       -18.8314
  26   1.0000      -0.672903       -18.3106
  27   1.0000      -0.667413       -18.1612
  28   1.0000      -0.667410       -18.1611
  29   1.0000      -0.657459       -17.8904
  30   1.0000      -0.657457       -17.8903
  31   1.0000      -0.654965       -17.8225
  32   1.0000      -0.654725       -17.8160
  33   1.0000      -0.654721       -17.8159
  34   1.0000      -0.639231       -17.3944
  35   1.0000      -0.639227       -17.3942
  36   1.0000      -0.627663       -17.0796
  37   0.0000      -0.559747       -15.2315
  38   0.0000      -0.497148       -13.5281
  39   0.0000      -0.497147       -13.5281
  40   0.0000      -0.419775       -11.4227
  41   0.0000      -0.345212        -9.3937

MULLIKEN ATOMIC CHARGES AND SPIN POPULATIONS
--------------------------------------------
   0 Au:    0.274435    0.557600
   1 Au:    0.501707    0.039913
   2 Au:    0.502046    0.039900
   3 Au:    0.502042    0.039897
   4 H :    0.219769    0.322690
Sum of atomic charges         :    2.0000000

LOEWDIN ATOMIC CHARGES AND SPIN POPULATIONS
-------------------------------------------
   0 Au:    0.585010    0.512712
   1 Au:    0.488620    0.051615
   2 Au:    0.488618    0.051618
   3 Au:    0.488618    0.051618
   4 H :   -0.050865    0.332437

  Mayer bond orders larger than 0.100000
B(  0-Au,  1-Au) :   0.3482 B(  0-Au,  2-Au) :   0.3479 B(  0-Au,  3-Au) :   0.3479
B(  0-Au,  4-H ) :   0.7965 B(  1-Au,  2-Au) :   0.5229 B(  1-Au,  3-Au) :   0.5229
B(  2-Au,  3-Au) :   0.5228

Dispersion correction           -0.012701310
FINAL SINGLE POINT ENERGY      -542.714113500212

DIPOLE MOMENT
-------------
                                X             Y             Z
Electronic contribution:      0.00000      -0.00002      -5.60876
Nuclear contribution   :      0.00000      -0.00000       5.68843
                        -----------------------------------------
Total Dipole Moment    :      0.00000      -0.00002       0.07967
                        -----------------------------------------
Magnitude (a.u.)       :      0.07967
Magnitude (Debye)      :      0.20250

Rotational constants in cm-1:     0.011875     0.010977     0.010977
Rotational constants in MHz :   356.004762   329.094939   329.094872

                             ****ORCA TERMINATED NORMALLY****
TOTAL RUN TIME: 0 days 0 hours 0 minutes 18 seconds 813 msec
