                         Program Version 4.2.0 -  RELEASE  -
|  1> #
|  2> # Au04C2_H_E TPSSh-D3BJ/Def2-TZVPPD
|  3> #
|  4> ! tpssh d3bj def2-tzvppd def2/jk grid4 nofinalgrid
|  5>
|  6> *xyz 2 2
|  7> Au       0.000000    1.337591    1.056475
|  8> Au      -0.000000   -1.337591    1.056475
|  9> Au      -1.306954    0.000000   -1.070288
| 10> Au       1.306954   -0.000000   -1.070288
| 11> H       -0.000000    0.000000    2.182427
| 12> *
| 13>
| 14> %maxcore 5000
| 15>
| 16> %pal
| 17> nprocs = 24
| 18> end
| 19>
| 20>
| 21>                          ****END OF INPUT****

CARTESIAN COORDINATES (ANGSTROEM)
---------------------------------
  Au     0.000000    1.337591    1.056475
  Au    -0.000000   -1.337591    1.056475
  Au    -1.306954    0.000000   -1.070288
  Au     1.306954   -0.000000   -1.070288
  H     -0.000000    0.000000    2.182427

 Total Charge           Charge          ....    2
 Multiplicity           Mult            ....    2
 Number of Electrons    NEL             ....   75
 Basis Dimension        Dim             ....  253

ORBITAL ENERGIES
----------------
                 SPIN UP ORBITALS
  NO   OCC          E(Eh)            E(eV)
   0   1.0000      -4.507094      -122.6443
   1   1.0000      -4.506839      -122.6373
   2   1.0000      -4.475446      -121.7831
   3   1.0000      -4.475096      -121.7736
   4   1.0000      -2.708529       -73.7028
   5   1.0000      -2.703759       -73.5730
   6   1.0000      -2.698721       -73.4359
   7   1.0000      -2.697149       -73.3931
   8   1.0000      -2.690555       -73.2137
   9   1.0000      -2.690021       -73.1992
  10   1.0000      -2.674381       -72.7736
  11   1.0000      -2.668975       -72.6265
  12   1.0000      -2.665472       -72.5312
  13   1.0000      -2.663407       -72.4750
  14   1.0000      -2.663304       -72.4722
  15   1.0000      -2.662818       -72.4590
  16   1.0000      -0.842730       -22.9319
  17   1.0000      -0.785733       -21.3809
  18   1.0000      -0.738264       -20.0892
  19   1.0000      -0.737029       -20.0556
  20   1.0000      -0.730724       -19.8840
  21   1.0000      -0.717454       -19.5229
  22   1.0000      -0.710195       -19.3254
  23   1.0000      -0.709322       -19.3016
  24   1.0000      -0.695984       -18.9387
  25   1.0000      -0.690554       -18.7909
  26   1.0000      -0.682277       -18.5657
  27   1.0000      -0.676459       -18.4074
  28   1.0000      -0.672356       -18.2957
  29   1.0000      -0.670989       -18.2585
  30   1.0000      -0.662525       -18.0282
  31   1.0000      -0.657489       -17.8912
  32   1.0000      -0.649669       -17.6784
  33   1.0000      -0.647865       -17.6293
  34   1.0000      -0.646028       -17.5793
  35   1.0000      -0.639758       -17.4087
  36   1.0000      -0.629499       -17.1296
  37   1.0000      -0.578347       -15.7376
  38   0.0000      -0.511155       -13.9092
  39   0.0000      -0.492702       -13.4071
  40   0.0000      -0.431314       -11.7366
  41   0.0000      -0.360383        -9.8065
  42   0.0000      -0.357572        -9.7300

                 SPIN DOWN ORBITALS
  NO   OCC          E(Eh)            E(eV)
   0   1.0000      -4.503062      -122.5346
   1   1.0000      -4.502815      -122.5278
   2   1.0000      -4.474131      -121.7473
   3   1.0000      -4.473785      -121.7379
   4   1.0000      -2.701141       -73.5018
   5   1.0000      -2.695844       -73.3576
   6   1.0000      -2.693695       -73.2992
   7   1.0000      -2.692678       -73.2715
   8   1.0000      -2.688895       -73.1686
   9   1.0000      -2.688375       -73.1544
  10   1.0000      -2.672673       -72.7271
  11   1.0000      -2.667207       -72.5784
  12   1.0000      -2.663593       -72.4800
  13   1.0000      -2.662719       -72.4563
  14   1.0000      -2.662150       -72.4408
  15   1.0000      -2.661607       -72.4260
  16   1.0000      -0.824676       -22.4406
  17   1.0000      -0.779039       -21.1987
  18   1.0000      -0.735467       -20.0131
  19   1.0000      -0.733123       -19.9493
  20   1.0000      -0.726071       -19.7574
  21   1.0000      -0.713527       -19.4161
  22   1.0000      -0.706191       -19.2164
  23   1.0000      -0.706172       -19.2159
  24   1.0000      -0.687833       -18.7169
  25   1.0000      -0.685548       -18.6547
  26   1.0000      -0.677759       -18.4428
  27   1.0000      -0.674791       -18.3620
  28   1.0000      -0.668011       -18.1775
  29   1.0000      -0.666006       -18.1230
  30   1.0000      -0.658430       -17.9168
  31   1.0000      -0.653220       -17.7750
  32   1.0000      -0.645514       -17.5653
  33   1.0000      -0.644467       -17.5368
  34   1.0000      -0.642564       -17.4850
  35   1.0000      -0.635583       -17.2951
  36   1.0000      -0.624171       -16.9846
  37   0.0000      -0.538596       -14.6559
  38   0.0000      -0.505415       -13.7530
  39   0.0000      -0.488567       -13.2946
  40   0.0000      -0.415915       -11.3176
  41   0.0000      -0.352880        -9.6024

MULLIKEN ATOMIC CHARGES AND SPIN POPULATIONS
--------------------------------------------
   0 Au:    0.464260    0.179481
   1 Au:    0.464265    0.179481
   2 Au:    0.435087    0.220944
   3 Au:    0.435095    0.220944
   4 H :    0.201293    0.199151
Sum of atomic charges         :    2.0000000

LOEWDIN ATOMIC CHARGES AND SPIN POPULATIONS
-------------------------------------------
   0 Au:    0.587974    0.258546
   1 Au:    0.587975    0.258546
   2 Au:    0.478022    0.171657
   3 Au:    0.478022    0.171657
   4 H :   -0.131993    0.139594

  Mayer bond orders larger than 0.100000
B(  0-Au,  1-Au) :   0.6265 B(  0-Au,  2-Au) :   0.3720 B(  0-Au,  3-Au) :   0.3720
B(  0-Au,  4-H ) :   0.4396 B(  1-Au,  2-Au) :   0.3720 B(  1-Au,  3-Au) :   0.3720
B(  1-Au,  4-H ) :   0.4396 B(  2-Au,  3-Au) :   0.7053

Dispersion correction           -0.013306739
FINAL SINGLE POINT ENERGY      -542.715786868114

DIPOLE MOMENT
-------------
                                X             Y             Z
Electronic contribution:     -0.00000       0.00000      -3.44330
Nuclear contribution   :      0.00000       0.00000       3.73018
                        -----------------------------------------
Total Dipole Moment    :     -0.00000       0.00000       0.28689
                        -----------------------------------------
Magnitude (a.u.)       :      0.28689
Magnitude (Debye)      :      0.72921

Rotational constants in cm-1:     0.012236     0.010747     0.010533
Rotational constants in MHz :   366.830155   322.181581   315.756842

                             ****ORCA TERMINATED NORMALLY****
TOTAL RUN TIME: 0 days 0 hours 0 minutes 18 seconds 261 msec
