                         Program Version 4.2.0 -  RELEASE  -
|  1> #
|  2> # Au04N0 TPSSh-D3BJ/Def2-TZVPPD
|  3> #
|  4> ! tpssh d3bj def2-tzvppd def2/jk grid4 nofinalgrid
|  5>
|  6> *xyz 0 1
|  7> Au      -0.788661   -0.016684    2.209526
|  8> Au      -1.223332   -0.011467   -0.436740
|  9> Au       0.788385    0.016579   -2.209564
| 10> Au       1.223608    0.011572    0.436778
| 11> *
| 12>
| 13> %maxcore 5000
| 14>
| 15> %pal
| 16> nprocs = 24
| 17> end
| 18>
| 19>
| 20>                          ****END OF INPUT****

CARTESIAN COORDINATES (ANGSTROEM)
---------------------------------
  Au    -0.788661   -0.016684    2.209526
  Au    -1.223332   -0.011467   -0.436740
  Au     0.788385    0.016579   -2.209564
  Au     1.223608    0.011572    0.436778

 Total Charge           Charge          ....    0
 Multiplicity           Mult            ....    1
 Number of Electrons    NEL             ....   76
 Basis Dimension        Dim             ....  236

ORBITAL ENERGIES
----------------

  NO   OCC          E(Eh)            E(eV)
   0   2.0000      -4.104621      -111.6924
   1   2.0000      -4.104237      -111.6820
   2   2.0000      -4.085312      -111.1670
   3   2.0000      -4.085303      -111.1668
   4   2.0000      -2.303037       -62.6688
   5   2.0000      -2.297435       -62.5164
   6   2.0000      -2.296183       -62.4823
   7   2.0000      -2.295314       -62.4587
   8   2.0000      -2.291276       -62.3488
   9   2.0000      -2.290593       -62.3302
  10   2.0000      -2.279371       -62.0248
  11   2.0000      -2.278742       -62.0077
  12   2.0000      -2.276088       -61.9355
  13   2.0000      -2.275829       -61.9285
  14   2.0000      -2.269729       -61.7625
  15   2.0000      -2.269714       -61.7621
  16   2.0000      -0.384252       -10.4560
  17   2.0000      -0.374989       -10.2040
  18   2.0000      -0.347471        -9.4552
  19   2.0000      -0.344966        -9.3870
  20   2.0000      -0.337219        -9.1762
  21   2.0000      -0.325259        -8.8508
  22   2.0000      -0.312419        -8.5013
  23   2.0000      -0.307565        -8.3693
  24   2.0000      -0.290918        -7.9163
  25   2.0000      -0.279877        -7.6158
  26   2.0000      -0.278563        -7.5801
  27   2.0000      -0.278456        -7.5772
  28   2.0000      -0.275844        -7.5061
  29   2.0000      -0.273114        -7.4318
  30   2.0000      -0.273025        -7.4294
  31   2.0000      -0.261704        -7.1213
  32   2.0000      -0.261274        -7.1096
  33   2.0000      -0.259943        -7.0734
  34   2.0000      -0.259665        -7.0658
  35   2.0000      -0.257435        -7.0052
  36   2.0000      -0.237715        -6.4685
  37   2.0000      -0.208366        -5.6699
  38   0.0000      -0.148899        -4.0517
  39   0.0000      -0.108058        -2.9404
  40   0.0000      -0.055356        -1.5063
  41   0.0000      -0.030114        -0.8194
  42   0.0000      -0.025556        -0.6954

MULLIKEN ATOMIC CHARGES
-----------------------
   0 Au:   -0.145007
   1 Au:    0.144977
   2 Au:   -0.144981
   3 Au:    0.145011
Sum of atomic charges:   -0.0000000

LOEWDIN ATOMIC CHARGES
----------------------
   0 Au:    0.077994
   1 Au:   -0.078083
   2 Au:    0.078013
   3 Au:   -0.077925

  Mayer bond orders larger than 0.100000
B(  0-Au,  1-Au) :   0.5813 B(  0-Au,  2-Au) :   0.2539 B(  0-Au,  3-Au) :   0.5814
B(  1-Au,  2-Au) :   0.5815 B(  1-Au,  3-Au) :   0.4470 B(  2-Au,  3-Au) :   0.5812

Dispersion correction           -0.010870339
FINAL SINGLE POINT ENERGY      -542.875844621103

DIPOLE MOMENT
-------------
                                X             Y             Z
Electronic contribution:      0.00034       0.00001       0.00000
Nuclear contribution   :     -0.00000      -0.00000       0.00000
                        -----------------------------------------
Total Dipole Moment    :      0.00034       0.00001       0.00000
                        -----------------------------------------
Magnitude (a.u.)       :      0.00034
Magnitude (Debye)      :      0.00088

Rotational constants in cm-1:     0.025355     0.007775     0.005950
Rotational constants in MHz :   760.119680   233.080651   178.382130

                             ****ORCA TERMINATED NORMALLY****
TOTAL RUN TIME: 0 days 0 hours 0 minutes 13 seconds 168 msec
