                         Program Version 4.2.0 -  RELEASE  -
|  1> #
|  2> # Cu01N0_H TPSSh-D3BJ/Def2-TZVPPD
|  3> #
|  4> ! tpssh d3bj def2-tzvppd def2/jk grid4 nofinalgrid
|  5>
|  6> *xyz 0 1
|  7> Cu       0.000000    0.000000    0.048513
|  8> H        0.000000    0.000000   -1.406870
|  9> *
| 10>
| 11> %maxcore 5000
| 12>
| 13> %pal
| 14> nprocs = 24
| 15> end
| 16>
| 17>
| 18>                          ****END OF INPUT****

CARTESIAN COORDINATES (ANGSTROEM)
---------------------------------
  Cu     0.000000    0.000000    0.048513
  H      0.000000    0.000000   -1.406870

 Total Charge           Charge          ....    0
 Multiplicity           Mult            ....    1
 Number of Electrons    NEL             ....   30
 Basis Dimension        Dim             ....   84

ORBITAL ENERGIES
----------------

  NO   OCC          E(Eh)            E(eV)
   0   2.0000    -322.771518     -8783.0595
   1   2.0000     -38.647718     -1051.6579
   2   2.0000     -33.825635      -920.4423
   3   2.0000     -33.823175      -920.3754
   4   2.0000     -33.823175      -920.3754
   5   2.0000      -4.247198      -115.5721
   6   2.0000      -2.744201       -74.6735
   7   2.0000      -2.734833       -74.4186
   8   2.0000      -2.734833       -74.4186
   9   2.0000      -0.317014        -8.6264
  10   2.0000      -0.249779        -6.7968
  11   2.0000      -0.249779        -6.7968
  12   2.0000      -0.241528        -6.5723
  13   2.0000      -0.241528        -6.5723
  14   2.0000      -0.215996        -5.8776
  15   0.0000      -0.084928        -2.3110
  16   0.0000      -0.011744        -0.3196
  17   0.0000      -0.011744        -0.3196
  18   0.0000       0.061608         1.6764
  19   0.0000       0.069070         1.8795

MULLIKEN ATOMIC CHARGES
-----------------------
   0 Cu:   -0.346767
   1 H :    0.346767
Sum of atomic charges:   -0.0000000

LOEWDIN ATOMIC CHARGES
----------------------
   0 Cu:    0.266294
   1 H :   -0.266294

  Mayer bond orders larger than 0.100000
B(  0-Cu,  1-H ) :   0.8190

Dispersion correction           -0.000384006
FINAL SINGLE POINT ENERGY     -1641.095653625544

DIPOLE MOMENT
-------------
                                X             Y             Z
Electronic contribution:      0.00000      -0.00000       2.53498
Nuclear contribution   :      0.00000       0.00000      -1.46200
                        -----------------------------------------
Total Dipole Moment    :      0.00000      -0.00000       1.07298
                        -----------------------------------------
Magnitude (a.u.)       :      1.07298
Magnitude (Debye)      :      2.72730

Rotational constants in cm-1:     0.000000     8.020774     8.020774
Rotational constants in MHz :     0.000000 240456.758928 240456.758928

                             ****ORCA TERMINATED NORMALLY****
TOTAL RUN TIME: 0 days 0 hours 0 minutes 3 seconds 642 msec
