                         Program Version 4.2.0 -  RELEASE  -
|  1> #
|  2> # Cu01N0_F TPSSh-D3BJ/Def2-TZVPPD
|  3> #
|  4> ! tpssh d3bj def2-tzvppd def2/jk grid4 nofinalgrid
|  5>
|  6> *xyz 0 1
|  7> Cu       0.000000    0.000000    0.412716
|  8> F        0.000000    0.000000   -1.329863
|  9> *
| 10>
| 11> %maxcore 5000
| 12>
| 13> %pal
| 14> nprocs = 24
| 15> end
| 16>
| 17>
| 18>                          ****END OF INPUT****

CARTESIAN COORDINATES (ANGSTROEM)
---------------------------------
  Cu     0.000000    0.000000    0.412716
  F      0.000000    0.000000   -1.329863

 Total Charge           Charge          ....    0
 Multiplicity           Mult            ....    1
 Number of Electrons    NEL             ....   38
 Basis Dimension        Dim             ....  107

ORBITAL ENERGIES
----------------

  NO   OCC          E(Eh)            E(eV)
   0   2.0000    -322.790517     -8783.5765
   1   2.0000     -38.663892     -1052.0980
   2   2.0000     -33.840592      -920.8493
   3   2.0000     -33.840592      -920.8493
   4   2.0000     -33.840032      -920.8341
   5   2.0000     -24.506531      -666.8566
   6   2.0000      -4.269114      -116.1685
   7   2.0000      -2.764625       -75.2293
   8   2.0000      -2.758311       -75.0575
   9   2.0000      -2.758311       -75.0575
  10   2.0000      -1.038788       -28.2669
  11   2.0000      -0.368832       -10.0364
  12   2.0000      -0.328760        -8.9460
  13   2.0000      -0.328760        -8.9460
  14   2.0000      -0.266128        -7.2417
  15   2.0000      -0.266127        -7.2417
  16   2.0000      -0.245926        -6.6920
  17   2.0000      -0.245926        -6.6920
  18   2.0000      -0.237347        -6.4585
  19   0.0000      -0.124834        -3.3969
  20   0.0000      -0.006580        -0.1791
  21   0.0000      -0.006580        -0.1791
  22   0.0000       0.032578         0.8865
  23   0.0000       0.068484         1.8636

MULLIKEN ATOMIC CHARGES
-----------------------
   0 Cu:    0.668222
   1 F :   -0.668222
Sum of atomic charges:   -0.0000000

LOEWDIN ATOMIC CHARGES
----------------------
   0 Cu:    0.547293
   1 F :   -0.547293

  Mayer bond orders larger than 0.100000
B(  0-Cu,  1-F ) :   0.7012

Dispersion correction           -0.000442146
FINAL SINGLE POINT ENERGY     -1740.409519813184

DIPOLE MOMENT
-------------
                                X             Y             Z
Electronic contribution:     -0.00000       0.00000       2.77477
Nuclear contribution   :      0.00000       0.00000      -0.83805
                        -----------------------------------------
Total Dipole Moment    :     -0.00000       0.00000       1.93673
                        -----------------------------------------
Magnitude (a.u.)       :      1.93673
Magnitude (Debye)      :      4.92277

Rotational constants in cm-1:     0.000000     0.379573     0.379573
Rotational constants in MHz :     0.000000 11379.305818 11379.305818

                             ****ORCA TERMINATED NORMALLY****
TOTAL RUN TIME: 0 days 0 hours 0 minutes 4 seconds 215 msec
