                         Program Version 4.2.0 -  RELEASE  -
|  1> #
|  2> # Cu02N0 TPSSh-D3BJ/Def2-TZVPPD
|  3> #
|  4> ! tpssh d3bj def2-tzvppd def2/jk grid4 nofinalgrid
|  5>
|  6> *xyz 0 1
|  7> Cu       0.000000    0.000000    1.107490
|  8> Cu       0.000000    0.000000   -1.107490
|  9> *
| 10>
| 11> %maxcore 5000
| 12>
| 13> %pal
| 14> nprocs = 24
| 15> end
| 16>
| 17>
| 18>                          ****END OF INPUT****

CARTESIAN COORDINATES (ANGSTROEM)
---------------------------------
  Cu     0.000000    0.000000    1.107490
  Cu     0.000000    0.000000   -1.107490

 Total Charge           Charge          ....    0
 Multiplicity           Mult            ....    1
 Number of Electrons    NEL             ....   58
 Basis Dimension        Dim             ....  134

ORBITAL ENERGIES
----------------

  NO   OCC          E(Eh)            E(eV)
   0   2.0000    -322.740318     -8782.2105
   1   2.0000    -322.740311     -8782.2103
   2   2.0000     -38.613734     -1050.7331
   3   2.0000     -38.613693     -1050.7320
   4   2.0000     -33.790832      -919.4953
   5   2.0000     -33.790830      -919.4952
   6   2.0000     -33.790045      -919.4739
   7   2.0000     -33.790045      -919.4739
   8   2.0000     -33.790039      -919.4737
   9   2.0000     -33.790039      -919.4737
  10   2.0000      -4.215441      -114.7080
  11   2.0000      -4.214771      -114.6898
  12   2.0000      -2.712116       -73.8004
  13   2.0000      -2.706647       -73.6516
  14   2.0000      -2.705183       -73.6118
  15   2.0000      -2.705183       -73.6118
  16   2.0000      -2.704669       -73.5978
  17   2.0000      -2.704669       -73.5978
  18   2.0000      -0.255638        -6.9563
  19   2.0000      -0.237488        -6.4624
  20   2.0000      -0.237488        -6.4624
  21   2.0000      -0.218549        -5.9470
  22   2.0000      -0.218543        -5.9469
  23   2.0000      -0.210078        -5.7165
  24   2.0000      -0.210072        -5.7163
  25   2.0000      -0.201395        -5.4802
  26   2.0000      -0.201395        -5.4802
  27   2.0000      -0.198721        -5.4075
  28   2.0000      -0.195944        -5.3319
  29   0.0000      -0.088838        -2.4174
  30   0.0000      -0.026828        -0.7300
  31   0.0000      -0.026828        -0.7300
  32   0.0000      -0.003313        -0.0902
  33   0.0000       0.039588         1.0772

MULLIKEN ATOMIC CHARGES
-----------------------
   0 Cu:    0.000008
   1 Cu:   -0.000008
Sum of atomic charges:   -0.0000000

LOEWDIN ATOMIC CHARGES
----------------------
   0 Cu:    0.000000
   1 Cu:   -0.000000

  Mayer bond orders larger than 0.100000
B(  0-Cu,  1-Cu) :   1.1007

Dispersion correction           -0.001333451
FINAL SINGLE POINT ENERGY     -3281.054278463414

DIPOLE MOMENT
-------------
                                X             Y             Z
Electronic contribution:      0.00000      -0.00000       0.00000
Nuclear contribution   :      0.00000       0.00000       0.00000
                        -----------------------------------------
Total Dipole Moment    :      0.00000      -0.00000       0.00000
                        -----------------------------------------
Magnitude (a.u.)       :      0.00000
Magnitude (Debye)      :      0.00000

Rotational constants in cm-1:     0.000000     0.108136     0.108136
Rotational constants in MHz :     0.000000  3241.846344  3241.846344

                             ****ORCA TERMINATED NORMALLY****
TOTAL RUN TIME: 0 days 0 hours 0 minutes 4 seconds 503 msec
