                         Program Version 4.2.0 -  RELEASE  -
|  1> #
|  2> # Cu03C1_LIN TPSSh-D3BJ/Def2-TZVPPD
|  3> #
|  4> ! tpssh d3bj def2-tzvppd def2/jk grid4 nofinalgrid
|  5>
|  6> *xyz 1 1
|  7> Cu       0.000000    0.000000    0.000000
|  8> Cu       0.000000    0.000000    2.337165
|  9> Cu       0.000000    0.000000   -2.337165
| 10> *
| 11>
| 12> %maxcore 5000
| 13>
| 14> %pal
| 15> nprocs = 24
| 16> end
| 17>
| 18>
| 19>                          ****END OF INPUT****

CARTESIAN COORDINATES (ANGSTROEM)
---------------------------------
  Cu     0.000000    0.000000    0.000000
  Cu     0.000000    0.000000    2.337165
  Cu     0.000000    0.000000   -2.337165

 Total Charge           Charge          ....    1
 Multiplicity           Mult            ....    1
 Number of Electrons    NEL             ....   86
 Basis Dimension        Dim             ....  201

ORBITAL ENERGIES
----------------

  NO   OCC          E(Eh)            E(eV)
   0   2.0000    -322.961582     -8788.2314
   1   2.0000    -322.961579     -8788.2314
   2   2.0000    -322.927621     -8787.3073
   3   2.0000     -38.828685     -1056.5822
   4   2.0000     -38.828666     -1056.5817
   5   2.0000     -38.802498     -1055.8696
   6   2.0000     -34.007492      -925.3909
   7   2.0000     -34.007489      -925.3908
   8   2.0000     -34.005220      -925.3291
   9   2.0000     -34.005220      -925.3291
  10   2.0000     -34.005217      -925.3290
  11   2.0000     -34.005217      -925.3290
  12   2.0000     -33.980250      -924.6496
  13   2.0000     -33.978227      -924.5946
  14   2.0000     -33.978227      -924.5946
  15   2.0000      -4.434131      -120.6589
  16   2.0000      -4.434113      -120.6584
  17   2.0000      -4.402851      -119.8077
  18   2.0000      -2.929086       -79.7045
  19   2.0000      -2.928918       -79.6999
  20   2.0000      -2.925131       -79.5969
  21   2.0000      -2.925131       -79.5969
  22   2.0000      -2.925129       -79.5968
  23   2.0000      -2.925129       -79.5968
  24   2.0000      -2.898682       -78.8771
  25   2.0000      -2.891444       -78.6802
  26   2.0000      -2.891444       -78.6802
  27   2.0000      -0.473767       -12.8918
  28   2.0000      -0.448299       -12.1988
  29   2.0000      -0.448299       -12.1988
  30   2.0000      -0.442557       -12.0426
  31   2.0000      -0.439934       -11.9712
  32   2.0000      -0.439934       -11.9712
  33   2.0000      -0.435104       -11.8398
  34   2.0000      -0.435094       -11.8395
  35   2.0000      -0.434575       -11.8254
  36   2.0000      -0.434566       -11.8251
  37   2.0000      -0.404459       -11.0059
  38   2.0000      -0.398627       -10.8472
  39   2.0000      -0.398614       -10.8468
  40   2.0000      -0.398072       -10.8321
  41   2.0000      -0.398072       -10.8321
  42   2.0000      -0.383925       -10.4471
  43   0.0000      -0.338200        -9.2029
  44   0.0000      -0.236295        -6.4299
  45   0.0000      -0.199710        -5.4344
  46   0.0000      -0.199710        -5.4344
  47   0.0000      -0.168925        -4.5967

MULLIKEN ATOMIC CHARGES
-----------------------
   0 Cu:   -0.278640
   1 Cu:    0.639317
   2 Cu:    0.639323
Sum of atomic charges:    1.0000000

LOEWDIN ATOMIC CHARGES
----------------------
   0 Cu:    0.132386
   1 Cu:    0.433807
   2 Cu:    0.433807

  Mayer bond orders larger than 0.100000
B(  0-Cu,  1-Cu) :   0.5076 B(  0-Cu,  2-Cu) :   0.5076 B(  1-Cu,  2-Cu) :   0.2391

Dispersion correction           -0.003301026
FINAL SINGLE POINT ENERGY     -4921.320678200849

DIPOLE MOMENT
-------------
                                X             Y             Z
Electronic contribution:     -0.00000       0.00000       0.00000
Nuclear contribution   :      0.00000       0.00000       0.00000
                        -----------------------------------------
Total Dipole Moment    :     -0.00000       0.00000       0.00000
                        -----------------------------------------
Magnitude (a.u.)       :      0.00000
Magnitude (Debye)      :      0.00001

Rotational constants in cm-1:     0.000000     0.024281     0.024281
Rotational constants in MHz :     0.000000   727.936180   727.936180

                             ****ORCA TERMINATED NORMALLY****
TOTAL RUN TIME: 0 days 0 hours 0 minutes 7 seconds 310 msec
