                         Program Version 4.2.0 -  RELEASE  -
|  1> #
|  2> # Cu03C1_D3H TPSSh-D3BJ/Def2-TZVPPD
|  3> #
|  4> ! tpssh d3bj def2-tzvppd def2/jk grid4 nofinalgrid
|  5>
|  6> *xyz 1 1
|  7> Cu       0.000000    1.349261   -0.000000
|  8> Cu       1.168494   -0.674630    0.000000
|  9> Cu      -1.168494   -0.674630   -0.000000
| 10> *
| 11>
| 12> %maxcore 5000
| 13>
| 14> %pal
| 15> nprocs = 24
| 16> end
| 17>
| 18>
| 19>                          ****END OF INPUT****

CARTESIAN COORDINATES (ANGSTROEM)
---------------------------------
  Cu     0.000000    1.349261   -0.000000
  Cu     1.168494   -0.674630    0.000000
  Cu    -1.168494   -0.674630   -0.000000

 Total Charge           Charge          ....    1
 Multiplicity           Mult            ....    1
 Number of Electrons    NEL             ....   86
 Basis Dimension        Dim             ....  201

ORBITAL ENERGIES
----------------

  NO   OCC          E(Eh)            E(eV)
   0   2.0000    -322.963460     -8788.2825
   1   2.0000    -322.963436     -8788.2819
   2   2.0000    -322.963431     -8788.2817
   3   2.0000     -38.835652     -1056.7718
   4   2.0000     -38.835632     -1056.7713
   5   2.0000     -38.835592     -1056.7702
   6   2.0000     -34.013234      -925.5471
   7   2.0000     -34.013207      -925.5464
   8   2.0000     -34.013200      -925.5462
   9   2.0000     -34.012834      -925.5363
  10   2.0000     -34.012810      -925.5356
  11   2.0000     -34.012805      -925.5355
  12   2.0000     -34.011016      -925.4868
  13   2.0000     -34.010994      -925.4862
  14   2.0000     -34.010990      -925.4861
  15   2.0000      -4.438267      -120.7714
  16   2.0000      -4.437763      -120.7577
  17   2.0000      -4.437748      -120.7573
  18   2.0000      -2.934142       -79.8421
  19   2.0000      -2.931756       -79.7771
  20   2.0000      -2.931754       -79.7771
  21   2.0000      -2.929540       -79.7168
  22   2.0000      -2.929535       -79.7167
  23   2.0000      -2.929345       -79.7115
  24   2.0000      -2.926291       -79.6284
  25   2.0000      -2.925877       -79.6171
  26   2.0000      -2.925861       -79.6167
  27   2.0000      -0.494723       -13.4621
  28   2.0000      -0.465824       -12.6757
  29   2.0000      -0.465820       -12.6756
  30   2.0000      -0.463537       -12.6135
  31   2.0000      -0.453626       -12.3438
  32   2.0000      -0.446214       -12.1421
  33   2.0000      -0.446182       -12.1412
  34   2.0000      -0.429784       -11.6950
  35   2.0000      -0.429768       -11.6946
  36   2.0000      -0.425884       -11.5889
  37   2.0000      -0.425417       -11.5762
  38   2.0000      -0.425404       -11.5758
  39   2.0000      -0.425358       -11.5746
  40   2.0000      -0.423716       -11.5299
  41   2.0000      -0.423674       -11.5287
  42   2.0000      -0.411535       -11.1984
  43   0.0000      -0.282371        -7.6837
  44   0.0000      -0.282366        -7.6836
  45   0.0000      -0.219213        -5.9651
  46   0.0000      -0.181489        -4.9386
  47   0.0000      -0.162840        -4.4311

MULLIKEN ATOMIC CHARGES
-----------------------
   0 Cu:    0.333259
   1 Cu:    0.333371
   2 Cu:    0.333370
Sum of atomic charges:    1.0000000

LOEWDIN ATOMIC CHARGES
----------------------
   0 Cu:    0.333334
   1 Cu:    0.333333
   2 Cu:    0.333333

  Mayer bond orders larger than 0.100000
B(  0-Cu,  1-Cu) :   0.5776 B(  0-Cu,  2-Cu) :   0.5776 B(  1-Cu,  2-Cu) :   0.5774

Dispersion correction           -0.003926121
FINAL SINGLE POINT ENERGY     -4921.383417206962

DIPOLE MOMENT
-------------
                                X             Y             Z
Electronic contribution:      0.00000      -0.00000       0.00000
Nuclear contribution   :      0.00000       0.00000       0.00000
                        -----------------------------------------
Total Dipole Moment    :      0.00000      -0.00000       0.00000
                        -----------------------------------------
Magnitude (a.u.)       :      0.00000
Magnitude (Debye)      :      0.00001

Rotational constants in cm-1:     0.097140     0.097140     0.048570
Rotational constants in MHz :  2912.185801  2912.185732  1456.092883

                             ****ORCA TERMINATED NORMALLY****
TOTAL RUN TIME: 0 days 0 hours 0 minutes 7 seconds 529 msec
