                         Program Version 4.2.0 -  RELEASE  -
|  1> #
|  2> # Cu03N0_D3H TPSSh-D3BJ/Def2-TZVPPD
|  3> #
|  4> ! tpssh d3bj def2-tzvppd def2/jk grid4 nofinalgrid
|  5>
|  6> *xyz 0 2
|  7> Cu       0.000000    1.346828   -0.000000
|  8> Cu       1.166387   -0.673414   -0.000000
|  9> Cu      -1.166387   -0.673414   -0.000000
| 10> *
| 11>
| 12> %maxcore 5000
| 13>
| 14> %pal
| 15> nprocs = 24
| 16> end
| 17>
| 18>
| 19>                          ****END OF INPUT****

CARTESIAN COORDINATES (ANGSTROEM)
---------------------------------
  Cu     0.000000    1.346828   -0.000000
  Cu     1.166387   -0.673414   -0.000000
  Cu    -1.166387   -0.673414   -0.000000

 Total Charge           Charge          ....    0
 Multiplicity           Mult            ....    2
 Number of Electrons    NEL             ....   87
 Basis Dimension        Dim             ....  201

ORBITAL ENERGIES
----------------
                 SPIN UP ORBITALS
  NO   OCC          E(Eh)            E(eV)
   0   1.0000    -322.763157     -8782.8320
   1   1.0000    -322.763152     -8782.8319
   2   1.0000    -322.753202     -8782.5611
   3   1.0000     -38.637257     -1051.3732
   4   1.0000     -38.637226     -1051.3724
   5   1.0000     -38.630209     -1051.1814
   6   1.0000     -33.814524      -920.1400
   7   1.0000     -33.814520      -920.1399
   8   1.0000     -33.813806      -920.1204
   9   1.0000     -33.813797      -920.1202
  10   1.0000     -33.812959      -920.0974
  11   1.0000     -33.812954      -920.0973
  12   1.0000     -33.807737      -919.9553
  13   1.0000     -33.807114      -919.9383
  14   1.0000     -33.804220      -919.8596
  15   1.0000      -4.238519      -115.3360
  16   1.0000      -4.238166      -115.3263
  17   1.0000      -4.228987      -115.0766
  18   1.0000      -2.733919       -74.3937
  19   1.0000      -2.730867       -74.3107
  20   1.0000      -2.729498       -74.2734
  21   1.0000      -2.728748       -74.2530
  22   1.0000      -2.727363       -74.2153
  23   1.0000      -2.727074       -74.2075
  24   1.0000      -2.721803       -74.0640
  25   1.0000      -2.720865       -74.0385
  26   1.0000      -2.715351       -73.8885
  27   1.0000      -0.297054        -8.0833
  28   1.0000      -0.265912        -7.2358
  29   1.0000      -0.262512        -7.1433
  30   1.0000      -0.261811        -7.1242
  31   1.0000      -0.253987        -6.9113
  32   1.0000      -0.246161        -6.6984
  33   1.0000      -0.242391        -6.5958
  34   1.0000      -0.235026        -6.3954
  35   1.0000      -0.229308        -6.2398
  36   1.0000      -0.226962        -6.1759
  37   1.0000      -0.225879        -6.1465
  38   1.0000      -0.222863        -6.0644
  39   1.0000      -0.219586        -5.9752
  40   1.0000      -0.219043        -5.9605
  41   1.0000      -0.217915        -5.9298
  42   1.0000      -0.209536        -5.7018
  43   1.0000      -0.135431        -3.6853
  44   0.0000      -0.112936        -3.0731
  45   0.0000      -0.053770        -1.4632
  46   0.0000      -0.031116        -0.8467
  47   0.0000      -0.010296        -0.2802
  48   0.0000      -0.008615        -0.2344

                 SPIN DOWN ORBITALS
  NO   OCC          E(Eh)            E(eV)
   0   1.0000    -322.762970     -8782.8269
   1   1.0000    -322.762965     -8782.8268
   2   1.0000    -322.752627     -8782.5455
   3   1.0000     -38.637344     -1051.3756
   4   1.0000     -38.637313     -1051.3747
   5   1.0000     -38.630250     -1051.1825
   6   1.0000     -33.814368      -920.1357
   7   1.0000     -33.814363      -920.1356
   8   1.0000     -33.813851      -920.1217
   9   1.0000     -33.813844      -920.1215
  10   1.0000     -33.813170      -920.1031
  11   1.0000     -33.813166      -920.1030
  12   1.0000     -33.807291      -919.9432
  13   1.0000     -33.807284      -919.9430
  14   1.0000     -33.804657      -919.8715
  15   1.0000      -4.238529      -115.3362
  16   1.0000      -4.238176      -115.3266
  17   1.0000      -4.228552      -115.0648
  18   1.0000      -2.733790       -74.3902
  19   1.0000      -2.731062       -74.3160
  20   1.0000      -2.729369       -74.2699
  21   1.0000      -2.728319       -74.2413
  22   1.0000      -2.727594       -74.2216
  23   1.0000      -2.727308       -74.2138
  24   1.0000      -2.721696       -74.0611
  25   1.0000      -2.719991       -74.0147
  26   1.0000      -2.715384       -73.8894
  27   1.0000      -0.293463        -7.9855
  28   1.0000      -0.263619        -7.1734
  29   1.0000      -0.261925        -7.1273
  30   1.0000      -0.257929        -7.0186
  31   1.0000      -0.249181        -6.7806
  32   1.0000      -0.244753        -6.6601
  33   1.0000      -0.240899        -6.5552
  34   1.0000      -0.229932        -6.2568
  35   1.0000      -0.228487        -6.2175
  36   1.0000      -0.226467        -6.1625
  37   1.0000      -0.225611        -6.1392
  38   1.0000      -0.219826        -5.9818
  39   1.0000      -0.217366        -5.9148
  40   1.0000      -0.214990        -5.8502
  41   1.0000      -0.214977        -5.8498
  42   1.0000      -0.205142        -5.5822
  43   0.0000      -0.104617        -2.8468
  44   0.0000      -0.086033        -2.3411
  45   0.0000      -0.045159        -1.2288
  46   0.0000      -0.018025        -0.4905
  47   0.0000       0.007385         0.2009

MULLIKEN ATOMIC CHARGES AND SPIN POPULATIONS
--------------------------------------------
   0 Cu:   -0.072658    0.592697
   1 Cu:    0.036337    0.203643
   2 Cu:    0.036321    0.203660
Sum of atomic charges         :   -0.0000000

LOEWDIN ATOMIC CHARGES AND SPIN POPULATIONS
-------------------------------------------
   0 Cu:   -0.022238    0.411235
   1 Cu:    0.011121    0.294381
   2 Cu:    0.011118    0.294385

  Mayer bond orders larger than 0.100000
B(  0-Cu,  1-Cu) :   0.5123 B(  0-Cu,  2-Cu) :   0.5123 B(  1-Cu,  2-Cu) :   0.8015

Dispersion correction           -0.003926484
FINAL SINGLE POINT ENERGY     -4921.591879114895

DIPOLE MOMENT
-------------
                                X             Y             Z
Electronic contribution:      0.00001      -0.33484       0.00000
Nuclear contribution   :      0.00000       0.00000      -0.00000
                        -----------------------------------------
Total Dipole Moment    :      0.00001      -0.33484       0.00000
                        -----------------------------------------
Magnitude (a.u.)       :      0.33484
Magnitude (Debye)      :      0.85109

Rotational constants in cm-1:     0.097491     0.097491     0.048746
Rotational constants in MHz :  2922.716641  2922.715325  1461.357991

                             ****ORCA TERMINATED NORMALLY****
TOTAL RUN TIME: 0 days 0 hours 0 minutes 10 seconds 475 msec
