                         Program Version 4.2.0 -  RELEASE  -
|  1> #
|  2> # Cu03N0_LIN TPSSh-D3BJ/Def2-TZVPPD
|  3> #
|  4> ! tpssh d3bj def2-tzvppd def2/jk grid4 nofinalgrid
|  5>
|  6> *xyz 0 2
|  7> Cu       0.000000    0.000000    0.000000
|  8> Cu       0.000000    0.000000    2.291099
|  9> Cu       0.000000    0.000000   -2.291099
| 10> *
| 11>
| 12> %maxcore 5000
| 13>
| 14> %pal
| 15> nprocs = 24
| 16> end
| 17>
| 18>
| 19>                          ****END OF INPUT****

CARTESIAN COORDINATES (ANGSTROEM)
---------------------------------
  Cu     0.000000    0.000000    0.000000
  Cu     0.000000    0.000000    2.291099
  Cu     0.000000    0.000000   -2.291099

 Total Charge           Charge          ....    0
 Multiplicity           Mult            ....    2
 Number of Electrons    NEL             ....   87
 Basis Dimension        Dim             ....  201

ORBITAL ENERGIES
----------------
                 SPIN UP ORBITALS
  NO   OCC          E(Eh)            E(eV)
   0   1.0000    -322.753093     -8782.5582
   1   1.0000    -322.753090     -8782.5581
   2   1.0000    -322.739882     -8782.1987
   3   1.0000     -38.625026     -1051.0404
   4   1.0000     -38.625005     -1051.0398
   5   1.0000     -38.616036     -1050.7958
   6   1.0000     -33.802992      -919.8262
   7   1.0000     -33.802989      -919.8261
   8   1.0000     -33.801108      -919.7749
   9   1.0000     -33.801108      -919.7749
  10   1.0000     -33.801105      -919.7748
  11   1.0000     -33.801105      -919.7748
  12   1.0000     -33.793472      -919.5671
  13   1.0000     -33.791801      -919.5217
  14   1.0000     -33.791801      -919.5217
  15   1.0000      -4.226544      -115.0101
  16   1.0000      -4.226531      -115.0098
  17   1.0000      -4.215411      -114.7072
  18   1.0000      -2.722121       -74.0727
  19   1.0000      -2.721476       -74.0551
  20   1.0000      -2.716040       -73.9072
  21   1.0000      -2.716040       -73.9072
  22   1.0000      -2.716036       -73.9071
  23   1.0000      -2.716036       -73.9071
  24   1.0000      -2.709475       -73.7286
  25   1.0000      -2.704397       -73.5904
  26   1.0000      -2.704397       -73.5904
  27   1.0000      -0.279724        -7.6117
  28   1.0000      -0.248683        -6.7670
  29   1.0000      -0.248683        -6.7670
  30   1.0000      -0.236232        -6.4282
  31   1.0000      -0.233730        -6.3601
  32   1.0000      -0.233730        -6.3601
  33   1.0000      -0.229218        -6.2373
  34   1.0000      -0.229211        -6.2371
  35   1.0000      -0.227624        -6.1940
  36   1.0000      -0.227617        -6.1938
  37   1.0000      -0.218846        -5.9551
  38   1.0000      -0.210692        -5.7332
  39   1.0000      -0.210681        -5.7329
  40   1.0000      -0.202070        -5.4986
  41   1.0000      -0.202070        -5.4986
  42   1.0000      -0.197432        -5.3724
  43   1.0000      -0.185952        -5.0600
  44   0.0000      -0.076066        -2.0699
  45   0.0000      -0.044336        -1.2064
  46   0.0000      -0.044336        -1.2064
  47   0.0000      -0.016298        -0.4435
  48   0.0000      -0.004428        -0.1205

                 SPIN DOWN ORBITALS
  NO   OCC          E(Eh)            E(eV)
   0   1.0000    -322.752466     -8782.5411
   1   1.0000    -322.752463     -8782.5410
   2   1.0000    -322.739831     -8782.1973
   3   1.0000     -38.625617     -1051.0565
   4   1.0000     -38.625596     -1051.0559
   5   1.0000     -38.616445     -1050.8069
   6   1.0000     -33.803730      -919.8463
   7   1.0000     -33.803727      -919.8462
   8   1.0000     -33.801550      -919.7869
   9   1.0000     -33.801550      -919.7869
  10   1.0000     -33.801547      -919.7869
  11   1.0000     -33.801547      -919.7869
  12   1.0000     -33.793705      -919.5735
  13   1.0000     -33.792057      -919.5286
  14   1.0000     -33.792057      -919.5286
  15   1.0000      -4.227282      -115.0302
  16   1.0000      -4.227272      -115.0299
  17   1.0000      -4.216214      -114.7290
  18   1.0000      -2.721749       -74.0626
  19   1.0000      -2.721060       -74.0438
  20   1.0000      -2.717623       -73.9503
  21   1.0000      -2.717623       -73.9503
  22   1.0000      -2.717617       -73.9501
  23   1.0000      -2.717617       -73.9501
  24   1.0000      -2.710080       -73.7450
  25   1.0000      -2.705204       -73.6123
  26   1.0000      -2.705204       -73.6123
  27   1.0000      -0.273762        -7.4494
  28   1.0000      -0.246488        -6.7073
  29   1.0000      -0.246488        -6.7073
  30   1.0000      -0.233543        -6.3550
  31   1.0000      -0.231091        -6.2883
  32   1.0000      -0.231091        -6.2883
  33   1.0000      -0.226564        -6.1651
  34   1.0000      -0.226556        -6.1649
  35   1.0000      -0.224780        -6.1166
  36   1.0000      -0.224773        -6.1164
  37   1.0000      -0.211315        -5.7502
  38   1.0000      -0.211304        -5.7499
  39   1.0000      -0.202083        -5.4990
  40   1.0000      -0.202083        -5.4990
  41   1.0000      -0.200448        -5.4545
  42   1.0000      -0.197593        -5.3768
  43   0.0000      -0.141910        -3.8616
  44   0.0000      -0.059459        -1.6180
  45   0.0000      -0.032674        -0.8891
  46   0.0000      -0.032674        -0.8891
  47   0.0000      -0.001417        -0.0386

MULLIKEN ATOMIC CHARGES AND SPIN POPULATIONS
--------------------------------------------
   0 Cu:   -0.315264   -0.159773
   1 Cu:    0.157624    0.579889
   2 Cu:    0.157640    0.579884
Sum of atomic charges         :   -0.0000000

LOEWDIN ATOMIC CHARGES AND SPIN POPULATIONS
-------------------------------------------
   0 Cu:   -0.248531    0.368692
   1 Cu:    0.124265    0.315654
   2 Cu:    0.124266    0.315654

  Mayer bond orders larger than 0.100000
B(  0-Cu,  1-Cu) :   0.4554 B(  0-Cu,  2-Cu) :   0.4554 B(  1-Cu,  2-Cu) :   0.2173

Dispersion correction           -0.003345710
FINAL SINGLE POINT ENERGY     -4921.581955566503

DIPOLE MOMENT
-------------
                                X             Y             Z
Electronic contribution:      0.00000       0.00000      -0.00000
Nuclear contribution   :      0.00000       0.00000       0.00000
                        -----------------------------------------
Total Dipole Moment    :      0.00000       0.00000      -0.00000
                        -----------------------------------------
Magnitude (a.u.)       :      0.00000
Magnitude (Debye)      :      0.00000

Rotational constants in cm-1:     0.000000     0.025268     0.025268
Rotational constants in MHz :     0.000000   757.502973   757.502973

                             ****ORCA TERMINATED NORMALLY****
TOTAL RUN TIME: 0 days 0 hours 0 minutes 8 seconds 648 msec
