                         Program Version 4.2.0 -  RELEASE  -
|  1> #
|  2> # Cu04C2 TPSSh-D3BJ/Def2-TZVPPD
|  3> #
|  4> ! tpssh d3bj def2-tzvppd def2/jk grid4 nofinalgrid
|  5>
|  6> *xyz 2 1
|  7> Cu      -0.000001   -0.000007    1.488630
|  8> Cu       0.000001   -1.403449   -0.496203
|  9> Cu       1.215485    0.701727   -0.496214
| 10> Cu      -1.215485    0.701729   -0.496213
| 11> *
| 12>
| 13> %maxcore 5000
| 14>
| 15> %pal
| 16> nprocs = 24
| 17> end
| 18>
| 19>
| 20>                          ****END OF INPUT****

CARTESIAN COORDINATES (ANGSTROEM)
---------------------------------
  Cu    -0.000001   -0.000007    1.488630
  Cu     0.000001   -1.403449   -0.496203
  Cu     1.215485    0.701727   -0.496214
  Cu    -1.215485    0.701729   -0.496213

 Total Charge           Charge          ....    2
 Multiplicity           Mult            ....    1
 Number of Electrons    NEL             ....  114
 Basis Dimension        Dim             ....  268

ORBITAL ENERGIES
----------------

  NO   OCC          E(Eh)            E(eV)
   0   2.0000    -323.170648     -8793.9204
   1   2.0000    -323.170645     -8793.9203
   2   2.0000    -323.170621     -8793.9197
   3   2.0000    -323.170609     -8793.9193
   4   2.0000     -39.042222     -1062.3929
   5   2.0000     -39.042212     -1062.3926
   6   2.0000     -39.042194     -1062.3921
   7   2.0000     -39.042155     -1062.3910
   8   2.0000     -34.219452      -931.1586
   9   2.0000     -34.219447      -931.1585
  10   2.0000     -34.219425      -931.1579
  11   2.0000     -34.219413      -931.1576
  12   2.0000     -34.218767      -931.1400
  13   2.0000     -34.218766      -931.1400
  14   2.0000     -34.218763      -931.1399
  15   2.0000     -34.218756      -931.1397
  16   2.0000     -34.218739      -931.1392
  17   2.0000     -34.218738      -931.1392
  18   2.0000     -34.218728      -931.1389
  19   2.0000     -34.218726      -931.1389
  20   2.0000      -4.644800      -126.3914
  21   2.0000      -4.644394      -126.3804
  22   2.0000      -4.644386      -126.3802
  23   2.0000      -4.644378      -126.3799
  24   2.0000      -3.140091       -85.4462
  25   2.0000      -3.137534       -85.3766
  26   2.0000      -3.137528       -85.3765
  27   2.0000      -3.137525       -85.3764
  28   2.0000      -3.135345       -85.3171
  29   2.0000      -3.135341       -85.3170
  30   2.0000      -3.134833       -85.3031
  31   2.0000      -3.134831       -85.3031
  32   2.0000      -3.134826       -85.3030
  33   2.0000      -3.134214       -85.2863
  34   2.0000      -3.134205       -85.2861
  35   2.0000      -3.134203       -85.2860
  36   2.0000      -0.722360       -19.6564
  37   2.0000      -0.675765       -18.3885
  38   2.0000      -0.675762       -18.3884
  39   2.0000      -0.675735       -18.3877
  40   2.0000      -0.663010       -18.0414
  41   2.0000      -0.663002       -18.0412
  42   2.0000      -0.653852       -17.7922
  43   2.0000      -0.653845       -17.7920
  44   2.0000      -0.653822       -17.7914
  45   2.0000      -0.648142       -17.6368
  46   2.0000      -0.633703       -17.2439
  47   2.0000      -0.633688       -17.2435
  48   2.0000      -0.633673       -17.2431
  49   2.0000      -0.633498       -17.2384
  50   2.0000      -0.633479       -17.2378
  51   2.0000      -0.633472       -17.2376
  52   2.0000      -0.632643       -17.2151
  53   2.0000      -0.632632       -17.2148
  54   2.0000      -0.618164       -16.8211
  55   2.0000      -0.618164       -16.8211
  56   2.0000      -0.618143       -16.8205
  57   0.0000      -0.472936       -12.8693
  58   0.0000      -0.472935       -12.8692
  59   0.0000      -0.472933       -12.8692
  60   0.0000      -0.358274        -9.7491
  61   0.0000      -0.338506        -9.2112

MULLIKEN ATOMIC CHARGES
-----------------------
   0 Cu:    0.500036
   1 Cu:    0.499978
   2 Cu:    0.499989
   3 Cu:    0.499997
Sum of atomic charges:    2.0000000

LOEWDIN ATOMIC CHARGES
----------------------
   0 Cu:    0.500018
   1 Cu:    0.500042
   2 Cu:    0.499970
   3 Cu:    0.499970

  Mayer bond orders larger than 0.100000
B(  0-Cu,  1-Cu) :   0.4078 B(  0-Cu,  2-Cu) :   0.4078 B(  0-Cu,  3-Cu) :   0.4078
B(  1-Cu,  2-Cu) :   0.4079 B(  1-Cu,  3-Cu) :   0.4079 B(  2-Cu,  3-Cu) :   0.4077

Dispersion correction           -0.007833606
FINAL SINGLE POINT ENERGY     -6561.531269123556

DIPOLE MOMENT
-------------
                                X             Y             Z
Electronic contribution:      0.00000      -0.00028       0.00004
Nuclear contribution   :      0.00000       0.00000      -0.00000
                        -----------------------------------------
Total Dipole Moment    :      0.00000      -0.00028       0.00004
                        -----------------------------------------
Magnitude (a.u.)       :      0.00028
Magnitude (Debye)      :      0.00072

Rotational constants in cm-1:     0.044890     0.044889     0.044888
Rotational constants in MHz :  1345.776498  1345.751239  1345.708462

                             ****ORCA TERMINATED NORMALLY****
TOTAL RUN TIME: 0 days 0 hours 0 minutes 11 seconds 926 msec
