                         Program Version 4.2.0 -  RELEASE  -
|  1> #
|  2> # Cu04C2_H_E TPSSh-D3BJ/Def2-TZVPPD
|  3> #
|  4> ! tpssh d3bj def2-tzvppd def2/jk grid4 nofinalgrid
|  5>
|  6> *xyz 2 2
|  7> Cu      -0.967673    0.056725    1.180703
|  8> Cu      -0.972439   -0.054931   -1.177653
|  9> Cu       0.936359    1.185605   -0.057167
| 10> Cu       0.933653   -1.187345    0.053806
| 11> H        2.032882   -0.001578    0.009000
| 12> *
| 13>
| 14> %maxcore 5000
| 15>
| 16> %pal
| 17> nprocs = 24
| 18> end
| 19>
| 20>
| 21>                          ****END OF INPUT****

CARTESIAN COORDINATES (ANGSTROEM)
---------------------------------
  Cu    -0.967673    0.056725    1.180703
  Cu    -0.972439   -0.054931   -1.177653
  Cu     0.936359    1.185605   -0.057167
  Cu     0.933653   -1.187345    0.053806
  H      2.032882   -0.001578    0.009000

 Total Charge           Charge          ....    2
 Multiplicity           Mult            ....    2
 Number of Electrons    NEL             ....  115
 Basis Dimension        Dim             ....  285

ORBITAL ENERGIES
----------------
                 SPIN UP ORBITALS
  NO   OCC          E(Eh)            E(eV)
   0   1.0000    -323.198158     -8794.6690
   1   1.0000    -323.198105     -8794.6675
   2   1.0000    -323.171291     -8793.9379
   3   1.0000    -323.171230     -8793.9362
   4   1.0000     -39.075236     -1063.2912
   5   1.0000     -39.075179     -1063.2897
   6   1.0000     -39.043014     -1062.4144
   7   1.0000     -39.042950     -1062.4127
   8   1.0000     -34.254717      -932.1182
   9   1.0000     -34.254662      -932.1168
  10   1.0000     -34.251256      -932.0240
  11   1.0000     -34.251202      -932.0226
  12   1.0000     -34.248080      -931.9376
  13   1.0000     -34.248025      -931.9362
  14   1.0000     -34.220496      -931.1870
  15   1.0000     -34.220436      -931.1854
  16   1.0000     -34.219552      -931.1614
  17   1.0000     -34.219485      -931.1595
  18   1.0000     -34.219219      -931.1523
  19   1.0000     -34.219164      -931.1508
  20   1.0000      -4.678106      -127.2977
  21   1.0000      -4.677817      -127.2899
  22   1.0000      -4.645459      -126.4094
  23   1.0000      -4.645139      -126.4007
  24   1.0000      -3.177526       -86.4649
  25   1.0000      -3.175635       -86.4134
  26   1.0000      -3.168978       -86.2323
  27   1.0000      -3.167924       -86.2036
  28   1.0000      -3.161570       -86.0307
  29   1.0000      -3.161327       -86.0241
  30   1.0000      -3.140047       -85.4450
  31   1.0000      -3.137873       -85.3859
  32   1.0000      -3.136376       -85.3451
  33   1.0000      -3.135444       -85.3198
  34   1.0000      -3.135062       -85.3094
  35   1.0000      -3.134814       -85.3026
  36   1.0000      -0.791459       -21.5367
  37   1.0000      -0.730895       -19.8887
  38   1.0000      -0.694098       -18.8874
  39   1.0000      -0.693260       -18.8646
  40   1.0000      -0.686110       -18.6700
  41   1.0000      -0.678689       -18.4681
  42   1.0000      -0.675544       -18.3825
  43   1.0000      -0.674149       -18.3445
  44   1.0000      -0.673900       -18.3378
  45   1.0000      -0.665546       -18.1104
  46   1.0000      -0.661380       -17.9971
  47   1.0000      -0.659130       -17.9358
  48   1.0000      -0.650915       -17.7123
  49   1.0000      -0.648752       -17.6535
  50   1.0000      -0.642880       -17.4937
  51   1.0000      -0.640316       -17.4239
  52   1.0000      -0.639290       -17.3960
  53   1.0000      -0.634355       -17.2617
  54   1.0000      -0.632576       -17.2133
  55   1.0000      -0.629047       -17.1172
  56   1.0000      -0.625107       -17.0100
  57   1.0000      -0.590315       -16.0633
  58   0.0000      -0.483083       -13.1454
  59   0.0000      -0.475305       -12.9337
  60   0.0000      -0.416870       -11.3436
  61   0.0000      -0.365365        -9.9421
  62   0.0000      -0.357813        -9.7366

                 SPIN DOWN ORBITALS
  NO   OCC          E(Eh)            E(eV)
   0   1.0000    -323.197965     -8794.6637
   1   1.0000    -323.197913     -8794.6623
   2   1.0000    -323.171041     -8793.9311
   3   1.0000    -323.170977     -8793.9294
   4   1.0000     -39.071389     -1063.1865
   5   1.0000     -39.071331     -1063.1850
   6   1.0000     -39.042768     -1062.4077
   7   1.0000     -39.042721     -1062.4064
   8   1.0000     -34.249558      -931.9779
   9   1.0000     -34.249503      -931.9764
  10   1.0000     -34.247906      -931.9329
  11   1.0000     -34.247851      -931.9314
  12   1.0000     -34.246581      -931.8969
  13   1.0000     -34.246527      -931.8954
  14   1.0000     -34.220056      -931.1751
  15   1.0000     -34.220011      -931.1738
  16   1.0000     -34.219389      -931.1569
  17   1.0000     -34.219342      -931.1556
  18   1.0000     -34.219207      -931.1520
  19   1.0000     -34.219163      -931.1508
  20   1.0000      -4.669397      -127.0608
  21   1.0000      -4.669109      -127.0529
  22   1.0000      -4.644686      -126.3883
  23   1.0000      -4.644376      -126.3799
  24   1.0000      -3.162819       -86.0647
  25   1.0000      -3.160366       -85.9979
  26   1.0000      -3.160171       -85.9926
  27   1.0000      -3.159704       -85.9799
  28   1.0000      -3.158117       -85.9367
  29   1.0000      -3.157878       -85.9302
  30   1.0000      -3.138725       -85.4091
  31   1.0000      -3.137072       -85.3641
  32   1.0000      -3.135417       -85.3190
  33   1.0000      -3.135078       -85.3098
  34   1.0000      -3.134839       -85.3033
  35   1.0000      -3.134030       -85.2813
  36   1.0000      -0.764452       -20.8018
  37   1.0000      -0.718193       -19.5430
  38   1.0000      -0.690473       -18.7887
  39   1.0000      -0.689094       -18.7512
  40   1.0000      -0.680993       -18.5308
  41   1.0000      -0.673977       -18.3398
  42   1.0000      -0.671278       -18.2664
  43   1.0000      -0.667244       -18.1566
  44   1.0000      -0.660810       -17.9815
  45   1.0000      -0.658528       -17.9195
  46   1.0000      -0.655322       -17.8322
  47   1.0000      -0.651166       -17.7191
  48   1.0000      -0.647029       -17.6065
  49   1.0000      -0.644604       -17.5406
  50   1.0000      -0.639450       -17.4003
  51   1.0000      -0.636716       -17.3259
  52   1.0000      -0.632542       -17.2123
  53   1.0000      -0.632364       -17.2075
  54   1.0000      -0.630241       -17.1497
  55   1.0000      -0.628111       -17.0918
  56   1.0000      -0.620500       -16.8847
  57   0.0000      -0.538219       -14.6457
  58   0.0000      -0.475508       -12.9392
  59   0.0000      -0.471677       -12.8350
  60   0.0000      -0.399512       -10.8713
  61   0.0000      -0.360321        -9.8048

MULLIKEN ATOMIC CHARGES AND SPIN POPULATIONS
--------------------------------------------
   0 Cu:    0.363206    0.219345
   1 Cu:    0.362837    0.221779
   2 Cu:    0.354377    0.135455
   3 Cu:    0.353996    0.135362
   4 H :    0.565584    0.288060
Sum of atomic charges         :    2.0000000

LOEWDIN ATOMIC CHARGES AND SPIN POPULATIONS
-------------------------------------------
   0 Cu:    0.512554    0.122309
   1 Cu:    0.512818    0.121890
   2 Cu:    0.487406    0.299836
   3 Cu:    0.487076    0.299824
   4 H :    0.000146    0.156141

  Mayer bond orders larger than 0.100000
B(  0-Cu,  1-Cu) :   0.7096 B(  0-Cu,  2-Cu) :   0.2921 B(  0-Cu,  3-Cu) :   0.2921
B(  1-Cu,  2-Cu) :   0.2900 B(  1-Cu,  3-Cu) :   0.2908 B(  2-Cu,  3-Cu) :   0.7768
B(  2-Cu,  4-H ) :   0.1204 B(  3-Cu,  4-H ) :   0.1200

Dispersion correction           -0.009147546
FINAL SINGLE POINT ENERGY     -6562.094555190456

DIPOLE MOMENT
-------------
                                X             Y             Z
Electronic contribution:     -2.23790       0.00249      -0.01060
Nuclear contribution   :      2.08414      -0.00162       0.00923
                        -----------------------------------------
Total Dipole Moment    :     -0.15376       0.00088      -0.00137
                        -----------------------------------------
Magnitude (a.u.)       :      0.15377
Magnitude (Debye)      :      0.39085

Rotational constants in cm-1:     0.047295     0.040918     0.040701
Rotational constants in MHz :  1417.862725  1226.705268  1220.194326

                             ****ORCA TERMINATED NORMALLY****
TOTAL RUN TIME: 0 days 0 hours 0 minutes 18 seconds 181 msec
