                         Program Version 4.2.0 -  RELEASE  -
|  1> #
|  2> # Cu04C2_NH3_A TPSSh-D3BJ/Def2-TZVPPD
|  3> #
|  4> ! tpssh d3bj def2-tzvppd def2/jk grid4 nofinalgrid
|  5>
|  6> *xyz 2 1
|  7> Cu       0.543145   -0.896300    1.192832
|  8> Cu       0.543145   -0.896300   -1.192832
|  9> Cu      -1.492086   -0.543328    0.000000
| 10> Cu       0.211399    1.215580   -0.000000
| 11> N        0.543145    3.129666   -0.000000
| 12> H        0.146420    3.607894   -0.818022
| 13> H        0.146420    3.607894    0.818022
| 14> H        1.542647    3.366638   -0.000000
| 15> *
| 16>
| 17> %maxcore 5000
| 18>
| 19> %pal
| 20> nprocs = 24
| 21> end
| 22>
| 23>
| 24>                          ****END OF INPUT****

CARTESIAN COORDINATES (ANGSTROEM)
---------------------------------
  Cu     0.543145   -0.896300    1.192832
  Cu     0.543145   -0.896300   -1.192832
  Cu    -1.492086   -0.543328    0.000000
  Cu     0.211399    1.215580   -0.000000
  N      0.543145    3.129666   -0.000000
  H      0.146420    3.607894   -0.818022
  H      0.146420    3.607894    0.818022
  H      1.542647    3.366638   -0.000000

 Total Charge           Charge          ....    2
 Multiplicity           Mult            ....    1
 Number of Electrons    NEL             ....  124
 Basis Dimension        Dim             ....  356

ORBITAL ENERGIES
----------------

  NO   OCC          E(Eh)            E(eV)
   0   2.0000    -323.134457     -8792.9356
   1   2.0000    -323.134454     -8792.9355
   2   2.0000    -323.134447     -8792.9353
   3   2.0000    -323.126456     -8792.7179
   4   2.0000     -39.006675     -1061.4256
   5   2.0000     -39.006671     -1061.4255
   6   2.0000     -39.006642     -1061.4247
   7   2.0000     -39.005959     -1061.4061
   8   2.0000     -34.183748      -930.1871
   9   2.0000     -34.183745      -930.1870
  10   2.0000     -34.183737      -930.1868
  11   2.0000     -34.183417      -930.1781
  12   2.0000     -34.183407      -930.1778
  13   2.0000     -34.183401      -930.1776
  14   2.0000     -34.182956      -930.1655
  15   2.0000     -34.182954      -930.1655
  16   2.0000     -34.182946      -930.1652
  17   2.0000     -34.182260      -930.1466
  18   2.0000     -34.181626      -930.1293
  19   2.0000     -34.181625      -930.1293
  20   2.0000     -14.601922      -397.3385
  21   2.0000      -4.608822      -125.4124
  22   2.0000      -4.608413      -125.4013
  23   2.0000      -4.608408      -125.4012
  24   2.0000      -4.604262      -125.2884
  25   2.0000      -3.103956       -84.4629
  26   2.0000      -3.101440       -84.3945
  27   2.0000      -3.101432       -84.3942
  28   2.0000      -3.099366       -84.3380
  29   2.0000      -3.099357       -84.3378
  30   2.0000      -3.099057       -84.3296
  31   2.0000      -3.098481       -84.3140
  32   2.0000      -3.098132       -84.3044
  33   2.0000      -3.098125       -84.3043
  34   2.0000      -3.096476       -84.2594
  35   2.0000      -3.093257       -84.1718
  36   2.0000      -3.093246       -84.1715
  37   2.0000      -1.192037       -32.4370
  38   2.0000      -0.793976       -21.6052
  39   2.0000      -0.793956       -21.6046
  40   2.0000      -0.715389       -19.4667
  41   2.0000      -0.668534       -18.1917
  42   2.0000      -0.638899       -17.3853
  43   2.0000      -0.637908       -17.3584
  44   2.0000      -0.637897       -17.3581
  45   2.0000      -0.625799       -17.0288
  46   2.0000      -0.625784       -17.0284
  47   2.0000      -0.619386       -16.8544
  48   2.0000      -0.615214       -16.7408
  49   2.0000      -0.615203       -16.7405
  50   2.0000      -0.613307       -16.6889
  51   2.0000      -0.597339       -16.2544
  52   2.0000      -0.597308       -16.2536
  53   2.0000      -0.596651       -16.2357
  54   2.0000      -0.595796       -16.2124
  55   2.0000      -0.595779       -16.2120
  56   2.0000      -0.592814       -16.1313
  57   2.0000      -0.592796       -16.1308
  58   2.0000      -0.581001       -15.8098
  59   2.0000      -0.578936       -15.7537
  60   2.0000      -0.578930       -15.7535
  61   2.0000      -0.572286       -15.5727
  62   0.0000      -0.441130       -12.0038
  63   0.0000      -0.441105       -12.0031
  64   0.0000      -0.412633       -11.2283
  65   0.0000      -0.325620        -8.8606
  66   0.0000      -0.309381        -8.4187

MULLIKEN ATOMIC CHARGES
-----------------------
   0 Cu:    0.516087
   1 Cu:    0.516069
   2 Cu:    0.516020
   3 Cu:    0.035656
   4 N :   -0.229488
   5 H :    0.215181
   6 H :    0.215172
   7 H :    0.215303
Sum of atomic charges:    2.0000000

LOEWDIN ATOMIC CHARGES
----------------------
   0 Cu:    0.459853
   1 Cu:    0.459853
   2 Cu:    0.459862
   3 Cu:    0.275417
   4 N :    0.474456
   5 H :   -0.043140
   6 H :   -0.043140
   7 H :   -0.043160

  Mayer bond orders larger than 0.100000
B(  0-Cu,  1-Cu) :   0.3863 B(  0-Cu,  2-Cu) :   0.3865 B(  0-Cu,  3-Cu) :   0.2571
B(  1-Cu,  2-Cu) :   0.3865 B(  1-Cu,  3-Cu) :   0.2572 B(  2-Cu,  3-Cu) :   0.2571
B(  3-Cu,  4-N ) :   0.2213 B(  4-N ,  5-H ) :   0.9779 B(  4-N ,  6-H ) :   0.9779
B(  4-N ,  7-H ) :   0.9778

Dispersion correction           -0.011871279
FINAL SINGLE POINT ENERGY     -6618.220529572467

DIPOLE MOMENT
-------------
                                X             Y             Z
Electronic contribution:     -2.27475     -13.11018      -0.00000
Nuclear contribution   :      2.54223      14.65497       0.00000
                        -----------------------------------------
Total Dipole Moment    :      0.26748       1.54480      -0.00000
                        -----------------------------------------
Magnitude (a.u.)       :      1.56778
Magnitude (Debye)      :      3.98499

Rotational constants in cm-1:     0.046273     0.029218     0.029214
Rotational constants in MHz :  1387.222495   875.924520   875.809559

                             ****ORCA TERMINATED NORMALLY****
TOTAL RUN TIME: 0 days 0 hours 0 minutes 25 seconds 321 msec
