                         Program Version 4.2.0 -  RELEASE  -
|  1> #
|  2> # Cu04N0 TPSSh-D3BJ/Def2-TZVPPD
|  3> #
|  4> ! tpssh d3bj def2-tzvppd def2/jk grid4 nofinalgrid
|  5>
|  6> *xyz 0 1
|  7> Cu      -0.387876   -0.085256    2.052405
|  8> Cu       1.110029    0.096858    0.214111
|  9> Cu       0.386859    0.085217   -2.052443
| 10> Cu      -1.109011   -0.096818   -0.214073
| 11> *
| 12>
| 13> %maxcore 5000
| 14>
| 15> %pal
| 16> nprocs = 24
| 17> end
| 18>
| 19>
| 20>                          ****END OF INPUT****

CARTESIAN COORDINATES (ANGSTROEM)
---------------------------------
  Cu    -0.387876   -0.085256    2.052405
  Cu     1.110029    0.096858    0.214111
  Cu     0.386859    0.085217   -2.052443
  Cu    -1.109011   -0.096818   -0.214073

 Total Charge           Charge          ....    0
 Multiplicity           Mult            ....    1
 Number of Electrons    NEL             ....  116
 Basis Dimension        Dim             ....  268

ORBITAL ENERGIES
----------------

  NO   OCC          E(Eh)            E(eV)
   0   2.0000    -322.764073     -8782.8569
   1   2.0000    -322.764067     -8782.8568
   2   2.0000    -322.747679     -8782.4108
   3   2.0000    -322.747665     -8782.4104
   4   2.0000     -38.639970     -1051.4470
   5   2.0000     -38.639937     -1051.4461
   6   2.0000     -38.624576     -1051.0281
   7   2.0000     -38.624549     -1051.0274
   8   2.0000     -33.816860      -920.2036
   9   2.0000     -33.816846      -920.2032
  10   2.0000     -33.816517      -920.1942
  11   2.0000     -33.816499      -920.1937
  12   2.0000     -33.815406      -920.1640
  13   2.0000     -33.815395      -920.1637
  14   2.0000     -33.801979      -919.7986
  15   2.0000     -33.801963      -919.7982
  16   2.0000     -33.801061      -919.7736
  17   2.0000     -33.801045      -919.7732
  18   2.0000     -33.799260      -919.7246
  19   2.0000     -33.799245      -919.7242
  20   2.0000      -4.240840      -115.3991
  21   2.0000      -4.240328      -115.3852
  22   2.0000      -4.222887      -114.9106
  23   2.0000      -4.222865      -114.9100
  24   2.0000      -2.736564       -74.4657
  25   2.0000      -2.732192       -74.3467
  26   2.0000      -2.731621       -74.3312
  27   2.0000      -2.731056       -74.3158
  28   2.0000      -2.729309       -74.2683
  29   2.0000      -2.728915       -74.2576
  30   2.0000      -2.716443       -73.9182
  31   2.0000      -2.716262       -73.9132
  32   2.0000      -2.713857       -73.8478
  33   2.0000      -2.713784       -73.8458
  34   2.0000      -2.710043       -73.7440
  35   2.0000      -2.710028       -73.7436
  36   2.0000      -0.300658        -8.1813
  37   2.0000      -0.284894        -7.7524
  38   2.0000      -0.266333        -7.2473
  39   2.0000      -0.264494        -7.1972
  40   2.0000      -0.263443        -7.1686
  41   2.0000      -0.254663        -6.9297
  42   2.0000      -0.242386        -6.5957
  43   2.0000      -0.238998        -6.5035
  44   2.0000      -0.237635        -6.4664
  45   2.0000      -0.227251        -6.1838
  46   2.0000      -0.225595        -6.1388
  47   2.0000      -0.221240        -6.0203
  48   2.0000      -0.221233        -6.0200
  49   2.0000      -0.220538        -6.0011
  50   2.0000      -0.219292        -5.9673
  51   2.0000      -0.216825        -5.9001
  52   2.0000      -0.212882        -5.7928
  53   2.0000      -0.211953        -5.7675
  54   2.0000      -0.211852        -5.7648
  55   2.0000      -0.210625        -5.7314
  56   2.0000      -0.200686        -5.4609
  57   2.0000      -0.167429        -4.5560
  58   0.0000      -0.108648        -2.9565
  59   0.0000      -0.063510        -1.7282
  60   0.0000      -0.056702        -1.5429
  61   0.0000      -0.024223        -0.6591
  62   0.0000      -0.015394        -0.4189

MULLIKEN ATOMIC CHARGES
-----------------------
   0 Cu:   -0.406176
   1 Cu:    0.405984
   2 Cu:   -0.406117
   3 Cu:    0.406309
Sum of atomic charges:   -0.0000000

LOEWDIN ATOMIC CHARGES
----------------------
   0 Cu:    0.154668
   1 Cu:   -0.154380
   2 Cu:    0.154668
   3 Cu:   -0.154957

  Mayer bond orders larger than 0.100000
B(  0-Cu,  1-Cu) :   0.3449 B(  0-Cu,  2-Cu) :   0.3002 B(  0-Cu,  3-Cu) :   0.3429
B(  1-Cu,  2-Cu) :   0.3432 B(  1-Cu,  3-Cu) :   0.3836 B(  2-Cu,  3-Cu) :   0.3448

Dispersion correction           -0.007438607
FINAL SINGLE POINT ENERGY     -6562.176940731692

DIPOLE MOMENT
-------------
                                X             Y             Z
Electronic contribution:      0.00094       0.00009       0.00002
Nuclear contribution   :      0.00000       0.00000      -0.00000
                        -----------------------------------------
Total Dipole Moment    :      0.00094       0.00009       0.00002
                        -----------------------------------------
Magnitude (a.u.)       :      0.00095
Magnitude (Debye)      :      0.00241

Rotational constants in cm-1:     0.103116     0.030352     0.023450
Rotational constants in MHz :  3091.345194   909.942810   703.010463

                             ****ORCA TERMINATED NORMALLY****
TOTAL RUN TIME: 0 days 0 hours 0 minutes 16 seconds 906 msec
