                         Program Version 4.2.0 -  RELEASE  -
|  1> #
|  2> # Cu04C2_NH3_F TPSSh-D3BJ/Def2-TZVPPD
|  3> #
|  4> ! tpssh d3bj def2-tzvppd def2/jk grid4 nofinalgrid
|  5>
|  6> *xyz 2 1
|  7> Cu       0.253817    1.375381    0.000000
|  8> Cu       0.253817   -0.687598    1.191098
|  9> Cu       0.253817   -0.687598   -1.191098
| 10> Cu      -1.745352    0.000159    0.000000
| 11> N        2.725949   -0.000959   -0.000000
| 12> H        3.150217   -0.936878   -0.000000
| 13> H        3.150637    0.466806   -0.810419
| 14> H        3.150637    0.466806    0.810419
| 15> *
| 16>
| 17> %maxcore 5000
| 18>
| 19> %pal
| 20> nprocs = 24
| 21> end
| 22>
| 23>
| 24>                          ****END OF INPUT****

CARTESIAN COORDINATES (ANGSTROEM)
---------------------------------
  Cu     0.253817    1.375381    0.000000
  Cu     0.253817   -0.687598    1.191098
  Cu     0.253817   -0.687598   -1.191098
  Cu    -1.745352    0.000159    0.000000
  N      2.725949   -0.000959   -0.000000
  H      3.150217   -0.936878   -0.000000
  H      3.150637    0.466806   -0.810419
  H      3.150637    0.466806    0.810419

 Total Charge           Charge          ....    2
 Multiplicity           Mult            ....    1
 Number of Electrons    NEL             ....  124
 Basis Dimension        Dim             ....  356

ORBITAL ENERGIES
----------------

  NO   OCC          E(Eh)            E(eV)
   0   2.0000    -323.135121     -8792.9537
   1   2.0000    -323.135109     -8792.9533
   2   2.0000    -323.135106     -8792.9533
   3   2.0000    -323.130535     -8792.8289
   4   2.0000     -39.006926     -1061.4324
   5   2.0000     -39.006914     -1061.4321
   6   2.0000     -39.006892     -1061.4315
   7   2.0000     -39.003219     -1061.3315
   8   2.0000     -34.184297      -930.2020
   9   2.0000     -34.184281      -930.2016
  10   2.0000     -34.184275      -930.2014
  11   2.0000     -34.183923      -930.1918
  12   2.0000     -34.183910      -930.1915
  13   2.0000     -34.183907      -930.1914
  14   2.0000     -34.182772      -930.1605
  15   2.0000     -34.182759      -930.1602
  16   2.0000     -34.182756      -930.1601
  17   2.0000     -34.180563      -930.1004
  18   2.0000     -34.179532      -930.0723
  19   2.0000     -34.179531      -930.0723
  20   2.0000     -14.589960      -397.0130
  21   2.0000      -4.609638      -125.4346
  22   2.0000      -4.609219      -125.4232
  23   2.0000      -4.609210      -125.4230
  24   2.0000      -4.604584      -125.2971
  25   2.0000      -3.104769       -84.4851
  26   2.0000      -3.102508       -84.4235
  27   2.0000      -3.102508       -84.4235
  28   2.0000      -3.100829       -84.3779
  29   2.0000      -3.100822       -84.3776
  30   2.0000      -3.100281       -84.3629
  31   2.0000      -3.099424       -84.3396
  32   2.0000      -3.098295       -84.3089
  33   2.0000      -3.098285       -84.3086
  34   2.0000      -3.097295       -84.2817
  35   2.0000      -3.094511       -84.2059
  36   2.0000      -3.094509       -84.2059
  37   2.0000      -1.178322       -32.0638
  38   2.0000      -0.781262       -21.2592
  39   2.0000      -0.781256       -21.2590
  40   2.0000      -0.695310       -18.9203
  41   2.0000      -0.664185       -18.0734
  42   2.0000      -0.641019       -17.4430
  43   2.0000      -0.641001       -17.4425
  44   2.0000      -0.635060       -17.2809
  45   2.0000      -0.628049       -17.0901
  46   2.0000      -0.628048       -17.0901
  47   2.0000      -0.621229       -16.9045
  48   2.0000      -0.617135       -16.7931
  49   2.0000      -0.617128       -16.7929
  50   2.0000      -0.598867       -16.2960
  51   2.0000      -0.598833       -16.2951
  52   2.0000      -0.597914       -16.2701
  53   2.0000      -0.597078       -16.2473
  54   2.0000      -0.597068       -16.2470
  55   2.0000      -0.596954       -16.2439
  56   2.0000      -0.594897       -16.1880
  57   2.0000      -0.594895       -16.1879
  58   2.0000      -0.582357       -15.8467
  59   2.0000      -0.580700       -15.8017
  60   2.0000      -0.580677       -15.8010
  61   2.0000      -0.577758       -15.7216
  62   0.0000      -0.444382       -12.0923
  63   0.0000      -0.444376       -12.0921
  64   0.0000      -0.421693       -11.4748
  65   0.0000      -0.337676        -9.1886
  66   0.0000      -0.316601        -8.6152

MULLIKEN ATOMIC CHARGES
-----------------------
   0 Cu:    0.468400
   1 Cu:    0.468474
   2 Cu:    0.468475
   3 Cu:    0.244112
   4 N :   -0.290662
   5 H :    0.213902
   6 H :    0.213649
   7 H :    0.213649
Sum of atomic charges:    2.0000000

LOEWDIN ATOMIC CHARGES
----------------------
   0 Cu:    0.410730
   1 Cu:    0.410647
   2 Cu:    0.410647
   3 Cu:    0.484046
   4 N :    0.495436
   5 H :   -0.070501
   6 H :   -0.070503
   7 H :   -0.070503

  Mayer bond orders larger than 0.100000
B(  0-Cu,  1-Cu) :   0.4288 B(  0-Cu,  2-Cu) :   0.4288 B(  0-Cu,  3-Cu) :   0.4359
B(  1-Cu,  2-Cu) :   0.4287 B(  1-Cu,  3-Cu) :   0.4357 B(  2-Cu,  3-Cu) :   0.4357
B(  4-N ,  5-H ) :   0.9915 B(  4-N ,  6-H ) :   0.9918 B(  4-N ,  7-H ) :   0.9918

Dispersion correction           -0.013277148
FINAL SINGLE POINT ENERGY     -6618.171348741336

DIPOLE MOMENT
-------------
                                X             Y             Z
Electronic contribution:    -11.41364       0.00411      -0.00000
Nuclear contribution   :     13.00779      -0.00451       0.00000
                        -----------------------------------------
Total Dipole Moment    :      1.59415      -0.00040      -0.00000
                        -----------------------------------------
Magnitude (a.u.)       :      1.59415
Magnitude (Debye)      :      4.05201

Rotational constants in cm-1:     0.046405     0.032369     0.032369
Rotational constants in MHz :  1391.178817   970.405392   970.384771

                             ****ORCA TERMINATED NORMALLY****
TOTAL RUN TIME: 0 days 0 hours 0 minutes 30 seconds 441 msec
