                         Program Version 4.2.0 -  RELEASE  -
|  1> #
|  2> # Cu04C2_H_F TPSSh-D3BJ/Def2-TZVPPD
|  3> #
|  4> ! tpssh d3bj def2-tzvppd def2/jk grid4 nofinalgrid
|  5>
|  6> *xyz 2 2
|  7> Cu      -0.000000    1.387730   -0.507533
|  8> Cu       1.201809   -0.693865   -0.507533
|  9> Cu      -1.201809   -0.693865   -0.507533
| 10> Cu       0.000000    0.000000    1.576640
| 11> H        0.000000    0.000000   -1.567185
| 12> *
| 13>
| 14> %maxcore 5000
| 15>
| 16> %pal
| 17> nprocs = 24
| 18> end
| 19>
| 20>
| 21>                          ****END OF INPUT****

CARTESIAN COORDINATES (ANGSTROEM)
---------------------------------
  Cu    -0.000000    1.387730   -0.507533
  Cu     1.201809   -0.693865   -0.507533
  Cu    -1.201809   -0.693865   -0.507533
  Cu     0.000000    0.000000    1.576640
  H      0.000000    0.000000   -1.567185

 Total Charge           Charge          ....    2
 Multiplicity           Mult            ....    2
 Number of Electrons    NEL             ....  115
 Basis Dimension        Dim             ....  285

ORBITAL ENERGIES
----------------
                 SPIN UP ORBITALS
  NO   OCC          E(Eh)            E(eV)
   0   1.0000    -323.191813     -8794.4963
   1   1.0000    -323.191800     -8794.4960
   2   1.0000    -323.191795     -8794.4959
   3   1.0000    -323.162587     -8793.7011
   4   1.0000     -39.065637     -1063.0300
   5   1.0000     -39.065628     -1063.0298
   6   1.0000     -39.065596     -1063.0289
   7   1.0000     -39.034623     -1062.1861
   8   1.0000     -34.243477      -931.8124
   9   1.0000     -34.243467      -931.8121
  10   1.0000     -34.243460      -931.8119
  11   1.0000     -34.241955      -931.7710
  12   1.0000     -34.241944      -931.7707
  13   1.0000     -34.241940      -931.7706
  14   1.0000     -34.240961      -931.7439
  15   1.0000     -34.240945      -931.7435
  16   1.0000     -34.240940      -931.7433
  17   1.0000     -34.212395      -930.9666
  18   1.0000     -34.210798      -930.9231
  19   1.0000     -34.210797      -930.9231
  20   1.0000      -4.669178      -127.0548
  21   1.0000      -4.668809      -127.0448
  22   1.0000      -4.668802      -127.0446
  23   1.0000      -4.635597      -126.1410
  24   1.0000      -3.166108       -86.1542
  25   1.0000      -3.163549       -86.0845
  26   1.0000      -3.163542       -86.0843
  27   1.0000      -3.159729       -85.9806
  28   1.0000      -3.159301       -85.9689
  29   1.0000      -3.159292       -85.9687
  30   1.0000      -3.157095       -85.9089
  31   1.0000      -3.157093       -85.9089
  32   1.0000      -3.156106       -85.8820
  33   1.0000      -3.128919       -85.1422
  34   1.0000      -3.125520       -85.0497
  35   1.0000      -3.125519       -85.0497
  36   1.0000      -0.823674       -22.4133
  37   1.0000      -0.725339       -19.7375
  38   1.0000      -0.691555       -18.8182
  39   1.0000      -0.691544       -18.8179
  40   1.0000      -0.682863       -18.5817
  41   1.0000      -0.680771       -18.5247
  42   1.0000      -0.680762       -18.5245
  43   1.0000      -0.673726       -18.3330
  44   1.0000      -0.666577       -18.1385
  45   1.0000      -0.666568       -18.1382
  46   1.0000      -0.659551       -17.9473
  47   1.0000      -0.659540       -17.9470
  48   1.0000      -0.654794       -17.8178
  49   1.0000      -0.654771       -17.8172
  50   1.0000      -0.654006       -17.7964
  51   1.0000      -0.639369       -17.3981
  52   1.0000      -0.631632       -17.1876
  53   1.0000      -0.631628       -17.1875
  54   1.0000      -0.631597       -17.1866
  55   1.0000      -0.626066       -17.0361
  56   1.0000      -0.626039       -17.0354
  57   1.0000      -0.570832       -15.5331
  58   0.0000      -0.485338       -13.2067
  59   0.0000      -0.485335       -13.2066
  60   0.0000      -0.402951       -10.9648
  61   0.0000      -0.368861       -10.0372
  62   0.0000      -0.347837        -9.4651

                 SPIN DOWN ORBITALS
  NO   OCC          E(Eh)            E(eV)
   0   1.0000    -323.191667     -8794.4924
   1   1.0000    -323.191654     -8794.4920
   2   1.0000    -323.191649     -8794.4919
   3   1.0000    -323.162082     -8793.6873
   4   1.0000     -39.063463     -1062.9709
   5   1.0000     -39.063453     -1062.9706
   6   1.0000     -39.063422     -1062.9698
   7   1.0000     -39.035356     -1062.2060
   8   1.0000     -34.240646      -931.7353
   9   1.0000     -34.240635      -931.7350
  10   1.0000     -34.240628      -931.7349
  11   1.0000     -34.240362      -931.7276
  12   1.0000     -34.240345      -931.7272
  13   1.0000     -34.240340      -931.7270
  14   1.0000     -34.239670      -931.7088
  15   1.0000     -34.239659      -931.7085
  16   1.0000     -34.239653      -931.7083
  17   1.0000     -34.212901      -930.9804
  18   1.0000     -34.211511      -930.9426
  19   1.0000     -34.211510      -930.9425
  20   1.0000      -4.664272      -126.9213
  21   1.0000      -4.663903      -126.9112
  22   1.0000      -4.663895      -126.9110
  23   1.0000      -4.636748      -126.1723
  24   1.0000      -3.159054       -85.9622
  25   1.0000      -3.156880       -85.9031
  26   1.0000      -3.156878       -85.9030
  27   1.0000      -3.155154       -85.8561
  28   1.0000      -3.155151       -85.8560
  29   1.0000      -3.154607       -85.8412
  30   1.0000      -3.153049       -85.7988
  31   1.0000      -3.152703       -85.7894
  32   1.0000      -3.152692       -85.7891
  33   1.0000      -3.130758       -85.1922
  34   1.0000      -3.126540       -85.0775
  35   1.0000      -3.126540       -85.0775
  36   1.0000      -0.803226       -21.8569
  37   1.0000      -0.714362       -19.4388
  38   1.0000      -0.689492       -18.7620
  39   1.0000      -0.689482       -18.7618
  40   1.0000      -0.676368       -18.4049
  41   1.0000      -0.674460       -18.3530
  42   1.0000      -0.674446       -18.3526
  43   1.0000      -0.669928       -18.2297
  44   1.0000      -0.663619       -18.0580
  45   1.0000      -0.663609       -18.0577
  46   1.0000      -0.652817       -17.7640
  47   1.0000      -0.652791       -17.7633
  48   1.0000      -0.651094       -17.7172
  49   1.0000      -0.645095       -17.5539
  50   1.0000      -0.645090       -17.5538
  51   1.0000      -0.636782       -17.3277
  52   1.0000      -0.629928       -17.1412
  53   1.0000      -0.629918       -17.1409
  54   1.0000      -0.628512       -17.1027
  55   1.0000      -0.623238       -16.9592
  56   1.0000      -0.623210       -16.9584
  57   0.0000      -0.522904       -14.2289
  58   0.0000      -0.478100       -13.0098
  59   0.0000      -0.478098       -13.0097
  60   0.0000      -0.390010       -10.6127
  61   0.0000      -0.360515        -9.8101

MULLIKEN ATOMIC CHARGES AND SPIN POPULATIONS
--------------------------------------------
   0 Cu:    0.409261    0.081097
   1 Cu:    0.409065    0.081147
   2 Cu:    0.409064    0.081149
   3 Cu:    0.343763    0.484810
   4 H :    0.428846    0.271797
Sum of atomic charges         :    2.0000000

LOEWDIN ATOMIC CHARGES AND SPIN POPULATIONS
-------------------------------------------
   0 Cu:    0.491112    0.235260
   1 Cu:    0.491111    0.235290
   2 Cu:    0.491112    0.235290
   3 Cu:    0.542662    0.159811
   4 H :   -0.015997    0.134349

  Mayer bond orders larger than 0.100000
B(  0-Cu,  1-Cu) :   0.5308 B(  0-Cu,  2-Cu) :   0.5308 B(  0-Cu,  3-Cu) :   0.3354
B(  1-Cu,  2-Cu) :   0.5309 B(  1-Cu,  3-Cu) :   0.3355 B(  2-Cu,  3-Cu) :   0.3355

Dispersion correction           -0.009252095
FINAL SINGLE POINT ENERGY     -6562.093396805469

DIPOLE MOMENT
-------------
                                X             Y             Z
Electronic contribution:     -0.00000      -0.00002       1.52945
Nuclear contribution   :      0.00000       0.00000      -1.60670
                        -----------------------------------------
Total Dipole Moment    :     -0.00000      -0.00002      -0.07725
                        -----------------------------------------
Magnitude (a.u.)       :      0.07725
Magnitude (Debye)      :      0.19636

Rotational constants in cm-1:     0.045915     0.042882     0.042882
Rotational constants in MHz :  1376.483459  1285.559854  1285.559421

                             ****ORCA TERMINATED NORMALLY****
TOTAL RUN TIME: 0 days 0 hours 0 minutes 19 seconds 729 msec
