                         Program Version 4.2.0 -  RELEASE  -
|  1> #
|  2> # Cu04C2_H_A TPSSh-D3BJ/Def2-TZVPPD
|  3> #
|  4> ! tpssh d3bj def2-tzvppd def2/jk grid4 nofinalgrid
|  5>
|  6> *xyz 2 2
|  7> Cu      -0.000000    1.401870   -0.545062
|  8> Cu       1.214055   -0.700935   -0.545062
|  9> Cu      -1.214055   -0.700935   -0.545062
| 10> Cu       0.000000    0.000000    1.530006
| 11> H        0.000000    0.000000    3.050192
| 12> *
| 13>
| 14> %maxcore 5000
| 15>
| 16> %pal
| 17> nprocs = 24
| 18> end
| 19>
| 20>
| 21>                          ****END OF INPUT****

CARTESIAN COORDINATES (ANGSTROEM)
---------------------------------
  Cu    -0.000000    1.401870   -0.545062
  Cu     1.214055   -0.700935   -0.545062
  Cu    -1.214055   -0.700935   -0.545062
  Cu     0.000000    0.000000    1.530006
  H      0.000000    0.000000    3.050192

 Total Charge           Charge          ....    2
 Multiplicity           Mult            ....    2
 Number of Electrons    NEL             ....  115
 Basis Dimension        Dim             ....  285

ORBITAL ENERGIES
----------------
                 SPIN UP ORBITALS
  NO   OCC          E(Eh)            E(eV)
   0   1.0000    -323.203429     -8794.8124
   1   1.0000    -323.175437     -8794.0507
   2   1.0000    -323.175358     -8794.0486
   3   1.0000    -323.175355     -8794.0485
   4   1.0000     -39.085025     -1063.5576
   5   1.0000     -39.047062     -1062.5246
   6   1.0000     -39.046994     -1062.5227
   7   1.0000     -39.046972     -1062.5221
   8   1.0000     -34.268263      -932.4868
   9   1.0000     -34.256818      -932.1754
  10   1.0000     -34.256814      -932.1753
  11   1.0000     -34.224450      -931.2946
  12   1.0000     -34.224377      -931.2926
  13   1.0000     -34.224372      -931.2925
  14   1.0000     -34.223603      -931.2716
  15   1.0000     -34.223530      -931.2696
  16   1.0000     -34.223525      -931.2695
  17   1.0000     -34.223438      -931.2671
  18   1.0000     -34.223362      -931.2650
  19   1.0000     -34.223354      -931.2648
  20   1.0000      -4.684873      -127.4819
  21   1.0000      -4.649469      -126.5185
  22   1.0000      -4.649164      -126.5102
  23   1.0000      -4.649132      -126.5093
  24   1.0000      -3.191259       -86.8386
  25   1.0000      -3.166850       -86.1744
  26   1.0000      -3.166840       -86.1741
  27   1.0000      -3.144506       -85.5664
  28   1.0000      -3.142421       -85.5096
  29   1.0000      -3.142390       -85.5088
  30   1.0000      -3.139812       -85.4386
  31   1.0000      -3.139692       -85.4354
  32   1.0000      -3.139690       -85.4353
  33   1.0000      -3.139153       -85.4207
  34   1.0000      -3.139147       -85.4205
  35   1.0000      -3.138648       -85.4069
  36   1.0000      -0.767201       -20.8766
  37   1.0000      -0.703401       -19.1405
  38   1.0000      -0.694511       -18.8986
  39   1.0000      -0.694477       -18.8977
  40   1.0000      -0.677946       -18.4479
  41   1.0000      -0.675897       -18.3921
  42   1.0000      -0.675896       -18.3921
  43   1.0000      -0.666298       -18.1309
  44   1.0000      -0.666284       -18.1305
  45   1.0000      -0.662177       -18.0187
  46   1.0000      -0.657440       -17.8898
  47   1.0000      -0.649862       -17.6836
  48   1.0000      -0.649837       -17.6830
  49   1.0000      -0.638455       -17.3732
  50   1.0000      -0.638396       -17.3716
  51   1.0000      -0.637944       -17.3593
  52   1.0000      -0.637938       -17.3592
  53   1.0000      -0.637847       -17.3567
  54   1.0000      -0.632576       -17.2133
  55   1.0000      -0.632555       -17.2127
  56   1.0000      -0.628971       -17.1152
  57   1.0000      -0.622385       -16.9359
  58   0.0000      -0.477712       -12.9992
  59   0.0000      -0.477704       -12.9990
  60   0.0000      -0.446252       -12.1431
  61   0.0000      -0.355100        -9.6628
  62   0.0000      -0.345284        -9.3957

                 SPIN DOWN ORBITALS
  NO   OCC          E(Eh)            E(eV)
   0   1.0000    -323.202800     -8794.7953
   1   1.0000    -323.175400     -8794.0497
   2   1.0000    -323.175321     -8794.0476
   3   1.0000    -323.175317     -8794.0475
   4   1.0000     -39.080439     -1063.4328
   5   1.0000     -39.046875     -1062.5195
   6   1.0000     -39.046806     -1062.5176
   7   1.0000     -39.046784     -1062.5170
   8   1.0000     -34.262483      -932.3296
   9   1.0000     -34.253708      -932.0908
  10   1.0000     -34.253707      -932.0908
  11   1.0000     -34.224286      -931.2902
  12   1.0000     -34.224212      -931.2882
  13   1.0000     -34.224207      -931.2880
  14   1.0000     -34.223433      -931.2669
  15   1.0000     -34.223356      -931.2649
  16   1.0000     -34.223349      -931.2647
  17   1.0000     -34.223288      -931.2630
  18   1.0000     -34.223215      -931.2610
  19   1.0000     -34.223210      -931.2609
  20   1.0000      -4.674023      -127.1866
  21   1.0000      -4.649015      -126.5061
  22   1.0000      -4.648710      -126.4978
  23   1.0000      -4.648678      -126.4969
  24   1.0000      -3.167491       -86.1918
  25   1.0000      -3.162211       -86.0481
  26   1.0000      -3.162206       -86.0480
  27   1.0000      -3.143561       -85.5406
  28   1.0000      -3.141624       -85.4879
  29   1.0000      -3.141595       -85.4872
  30   1.0000      -3.139579       -85.4323
  31   1.0000      -3.139571       -85.4321
  32   1.0000      -3.139316       -85.4251
  33   1.0000      -3.138689       -85.4081
  34   1.0000      -3.138679       -85.4078
  35   1.0000      -3.138664       -85.4074
  36   1.0000      -0.735393       -20.0111
  37   1.0000      -0.690786       -18.7972
  38   1.0000      -0.690755       -18.7964
  39   1.0000      -0.684169       -18.6172
  40   1.0000      -0.671531       -18.2733
  41   1.0000      -0.671527       -18.2732
  42   1.0000      -0.664719       -18.0879
  43   1.0000      -0.663410       -18.0523
  44   1.0000      -0.663390       -18.0518
  45   1.0000      -0.657631       -17.8951
  46   1.0000      -0.648559       -17.6482
  47   1.0000      -0.647938       -17.6313
  48   1.0000      -0.647917       -17.6307
  49   1.0000      -0.637761       -17.3544
  50   1.0000      -0.637720       -17.3533
  51   1.0000      -0.637611       -17.3503
  52   1.0000      -0.637217       -17.3396
  53   1.0000      -0.637201       -17.3391
  54   1.0000      -0.630329       -17.1521
  55   1.0000      -0.630299       -17.1513
  56   1.0000      -0.622333       -16.9346
  57   0.0000      -0.542052       -14.7500
  58   0.0000      -0.475672       -12.9437
  59   0.0000      -0.475664       -12.9435
  60   0.0000      -0.430690       -11.7197
  61   0.0000      -0.353453        -9.6180

MULLIKEN ATOMIC CHARGES AND SPIN POPULATIONS
--------------------------------------------
   0 Cu:    0.563394    0.019733
   1 Cu:    0.563620    0.019739
   2 Cu:    0.563610    0.019754
   3 Cu:   -0.247464    0.512297
   4 H :    0.556841    0.428477
Sum of atomic charges         :    2.0000000

LOEWDIN ATOMIC CHARGES AND SPIN POPULATIONS
-------------------------------------------
   0 Cu:    0.498268    0.040589
   1 Cu:    0.498353    0.040610
   2 Cu:    0.498353    0.040611
   3 Cu:    0.409526    0.455289
   4 H :    0.095499    0.422901

  Mayer bond orders larger than 0.100000
B(  0-Cu,  1-Cu) :   0.3826 B(  0-Cu,  2-Cu) :   0.3826 B(  0-Cu,  3-Cu) :   0.2763
B(  0-Cu,  4-H ) :   0.1056 B(  1-Cu,  2-Cu) :   0.3825 B(  1-Cu,  3-Cu) :   0.2763
B(  1-Cu,  4-H ) :   0.1056 B(  2-Cu,  3-Cu) :   0.2763 B(  2-Cu,  4-H ) :   0.1056
B(  3-Cu,  4-H ) :  -0.1674

Dispersion correction           -0.008755971
FINAL SINGLE POINT ENERGY     -6562.067287408968

DIPOLE MOMENT
-------------
                                X             Y             Z
Electronic contribution:     -0.00000      -0.00026      -3.34994
Nuclear contribution   :      0.00000       0.00000       3.12710
                        -----------------------------------------
Total Dipole Moment    :     -0.00000      -0.00026      -0.22284
                        -----------------------------------------
Magnitude (a.u.)       :      0.22284
Magnitude (Debye)      :      0.56642

Rotational constants in cm-1:     0.044993     0.041927     0.041927
Rotational constants in MHz :  1348.855174  1256.945404  1256.945373

                             ****ORCA TERMINATED NORMALLY****
TOTAL RUN TIME: 0 days 0 hours 0 minutes 21 seconds 187 msec
