                         Program Version 4.2.0 -  RELEASE  -
|  1> #
|  2> # NH3 TPSSh-D3BJ/Def2-TZVPPD
|  3> #
|  4> ! tpssh d3bj def2-tzvppd def2/jk grid4 nofinalgrid
|  5>
|  6> *xyz 0 1
|  7> N       -0.000000    0.125670    0.000000
|  8> H       -0.933163   -0.293418    0.000000
|  9> H        0.466582   -0.293138    0.808252
| 10> H        0.466582   -0.293138   -0.808252
| 11> *
| 12>
| 13> %maxcore 5000
| 14>
| 15> %pal
| 16> nprocs = 24
| 17> end
| 18>
| 19>
| 20>                          ****END OF INPUT****

CARTESIAN COORDINATES (ANGSTROEM)
---------------------------------
  N     -0.000000    0.125670    0.000000
  H     -0.933163   -0.293418    0.000000
  H      0.466582   -0.293138    0.808252
  H      0.466582   -0.293138   -0.808252

 Total Charge           Charge          ....    0
 Multiplicity           Mult            ....    1
 Number of Electrons    NEL             ....   10
 Basis Dimension        Dim             ....   88

ORBITAL ENERGIES
----------------

  NO   OCC          E(Eh)            E(eV)
   0   2.0000     -14.233630      -387.3168
   1   2.0000      -0.833590       -22.6831
   2   2.0000      -0.438665       -11.9367
   3   2.0000      -0.438616       -11.9354
   4   2.0000      -0.258180        -7.0254
   5   0.0000       0.002575         0.0701
   6   0.0000       0.082411         2.2425
   7   0.0000       0.082414         2.2426
   8   0.0000       0.127984         3.4826
   9   0.0000       0.142609         3.8806

MULLIKEN ATOMIC CHARGES
-----------------------
   0 N :   -0.271683
   1 H :    0.090650
   2 H :    0.090517
   3 H :    0.090517
Sum of atomic charges:   -0.0000000

LOEWDIN ATOMIC CHARGES
----------------------
   0 N :    0.446957
   1 H :   -0.148968
   2 H :   -0.148995
   3 H :   -0.148995

  Mayer bond orders larger than 0.100000
B(  0-N ,  1-H ) :   1.0238 B(  0-N ,  2-H ) :   1.0239 B(  0-N ,  3-H ) :   1.0239

Dispersion correction           -0.000783866
FINAL SINGLE POINT ENERGY       -56.585298109465

DIPOLE MOMENT
-------------
                                X             Y             Z
Electronic contribution:      0.00007       0.34298      -0.00000
Nuclear contribution   :      0.00000      -0.96926       0.00000
                        -----------------------------------------
Total Dipole Moment    :      0.00007      -0.62628      -0.00000
                        -----------------------------------------
Magnitude (a.u.)       :      0.62628
Magnitude (Debye)      :      1.59187

Rotational constants in cm-1:     9.616093     9.614148     6.400903
Rotational constants in MHz : 288283.214631 288224.911301 191894.257358

                             ****ORCA TERMINATED NORMALLY****
TOTAL RUN TIME: 0 days 0 hours 0 minutes 2 seconds 890 msec
