                         Program Version 4.2.0 -  RELEASE  -
|  1> #
|  2> # Ag01N0_F M06-D3/Def2-TZVPPD
|  3> #
|  4> ! m06 d3zero def2-tzvppd def2/jk grid4 nofinalgrid opt xyzfile numfreq
|  5>
|  6> *xyz 0 1
|  7> Ag       0.000000    0.000000    0.317712
|  8> F        0.000000    0.000000   -1.659163
|  9> *
| 10>
| 11> %maxcore 5000
| 12>
| 13> %pal
| 14> nprocs = 24
| 15> end
| 16>
| 17>
| 18>                          ****END OF INPUT****
 Total Charge           Charge          ....    0
 Multiplicity           Mult            ....    1
 Number of Electrons    NEL             ....   28
Dispersion correction           -0.000000538
FINAL SINGLE POINT ENERGY      -246.870021684734
Dispersion correction            ... done
Dispersion correction           -0.000000563
FINAL SINGLE POINT ENERGY      -246.870123672779
Dispersion correction            ... done
Dispersion correction           -0.000000636
FINAL SINGLE POINT ENERGY      -246.870045659774
Dispersion correction            ... done
Dispersion correction           -0.000000645
FINAL SINGLE POINT ENERGY      -246.870005326592
Dispersion correction            ... done
                    ***********************HURRAY********************

CARTESIAN COORDINATES (ANGSTROEM)
---------------------------------
  Ag     0.000000    0.000000    0.340478
  F      0.000000    0.000000   -1.681929

 Multiplicity           Mult            ....    1
 Number of Electrons    NEL             ....   28
 Basis Dimension        Dim             ....   96

ORBITAL ENERGIES
----------------

  NO   OCC          E(Eh)            E(eV)
   0   2.0000     -24.646008      -670.6520
   1   2.0000      -3.758092      -102.2629
   2   2.0000      -2.367395       -64.4201
   3   2.0000      -2.367395       -64.4201
   4   2.0000      -2.362771       -64.2943
   5   2.0000      -1.062689       -28.9172
   6   2.0000      -0.412808       -11.2331
   7   2.0000      -0.391747       -10.6600
   8   2.0000      -0.391747       -10.6600
   9   2.0000      -0.382095       -10.3973
  10   2.0000      -0.382095       -10.3973
  11   2.0000      -0.303677        -8.2635
  12   2.0000      -0.302381        -8.2282
  13   2.0000      -0.302381        -8.2282
  14   0.0000      -0.120077        -3.2675
  15   0.0000      -0.020887        -0.5684
  16   0.0000      -0.020887        -0.5684
  17   0.0000       0.004376         0.1191
  18   0.0000       0.039556         1.0764

MULLIKEN ATOMIC CHARGES
-----------------------
   0 Ag:    0.641509
   1 F :   -0.641509
Sum of atomic charges:   -0.0000000

LOEWDIN ATOMIC CHARGES
----------------------
   0 Ag:    0.715458
   1 F :   -0.715458

  Mayer bond orders larger than 0.100000
B(  0-Ag,  1-F ) :   0.5636

Dispersion correction           -0.000000646
FINAL SINGLE POINT ENERGY      -246.870001230700

DIPOLE MOMENT
-------------
                                X             Y             Z
Electronic contribution:      0.00000      -0.00000      20.72293
Nuclear contribution   :      0.00000       0.00000     -18.37178
                        -----------------------------------------
Total Dipole Moment    :      0.00000      -0.00000       2.35115
                        -----------------------------------------
Magnitude (a.u.)       :      2.35115
Magnitude (Debye)      :      5.97616

VIBRATIONAL FREQUENCIES
-----------------------

Scaling factor for frequencies =  1.000000000 (already applied!)

   0:         0.00 cm**-1
   1:         0.00 cm**-1
   2:         0.00 cm**-1
   3:         0.00 cm**-1
   4:         0.00 cm**-1
   5:       474.99 cm**-1

IR SPECTRUM
-----------

 Mode    freq (cm**-1)   T**2         TX         TY         TZ
-------------------------------------------------------------------
   5:       474.99   53.845360  ( -0.000004  -0.000055   7.337940)

--------------------------
THERMOCHEMISTRY AT 298.15K
--------------------------

Temperature         ... 298.15 K
Pressure            ... 1.00 atm
Total Mass          ... 126.87 AMU
The molecule is recognized as being linear

Throughout the following assumptions are being made:
  (1) The electronic state is orbitally nondegenerate
  (2) There are no thermally accessible electronically excited states
  (3) Hindered rotations indicated by low frequency modes are not
      treated as such but are treated as vibrations and this may
      cause some error
  (4) All equations used are the standard statistical mechanics
      equations for an ideal gas
  (5) All vibrations are strictly harmonic

freq.     474.99  E(vib)   ...       0.15

------------
INNER ENERGY
------------

The inner energy is: U= E(el) + E(ZPE) + E(vib) + E(rot) + E(trans)
    E(el)   - is the total energy from the electronic structure calculation
              = E(kin-el) + E(nuc-el) + E(el-el) + E(nuc-nuc)
    E(ZPE)  - the the zero temperature vibrational energy from the frequency calculation
    E(vib)  - the the finite temperature correction to E(ZPE) due to population
              of excited vibrational states
    E(rot)  - is the rotational thermal energy
    E(trans)- is the translational thermal energy

Summary of contributions to the inner energy U:
Electronic energy                ...   -246.87000123 Eh
Zero point energy                ...      0.00108210 Eh       0.68 kcal/mol
Thermal vibrational correction   ...      0.00024329 Eh       0.15 kcal/mol
Thermal rotational correction    ...      0.00094418 Eh       0.59 kcal/mol
Thermal translational correction ...      0.00141627 Eh       0.89 kcal/mol
-----------------------------------------------------------------------
Total thermal energy                   -246.86631538 Eh

Summary of corrections to the electronic energy:
(perhaps to be used in another calculation)
Total thermal correction                  0.00260374 Eh       1.63 kcal/mol
Non-thermal (ZPE) correction              0.00108210 Eh       0.68 kcal/mol
-----------------------------------------------------------------------
Total correction                          0.00368585 Eh       2.31 kcal/mol

--------
ENTHALPY
--------

The enthalpy is H = U + kB*T
                kB is Boltzmann's constant
Total free energy                 ...   -246.86631538 Eh
Thermal Enthalpy correction       ...      0.00094421 Eh       0.59 kcal/mol
-----------------------------------------------------------------------
Total Enthalpy                    ...   -246.86537117 Eh

Note: Rotational entropy computed according to Herzberg
Infrared and Raman Spectra, Chapter V,1, Van Nostrand Reinhold, 1945
Point Group:  Cinfv, Symmetry Number:   1
Rotational constants in cm-1:     0.000000     0.255154     0.255154

Vibrational entropy computed according to the QRRHO of S. Grimme
Chem.Eur.J. 2012 18 9955

-------
ENTROPY
-------

The entropy contributions are T*S = T*(S(el)+S(vib)+S(rot)+S(trans))
     S(el)   - electronic entropy
     S(vib)  - vibrational entropy
     S(rot)  - rotational entropy
     S(trans)- translational entropy
The entropies will be listed as mutliplied by the temperature to get
units of energy

Electronic entropy                ...      0.00000000 Eh      0.00 kcal/mol
Vibrational entropy               ...      0.00034441 Eh      0.22 kcal/mol
Rotational entropy                ...      0.00726991 Eh      4.56 kcal/mol
Translational entropy             ...      0.01920828 Eh     12.05 kcal/mol
-----------------------------------------------------------------------
Final entropy term                ...      0.02682260 Eh     16.83 kcal/mol

In case the symmetry of your molecule has not been determined correctly
or in case you have a reason to use a different symmetry number we print
out the resulting rotational entropy values for sn=1,12 :
 --------------------------------------------------------
|  sn= 1 | S(rot)=             -inf Eh      -inf kcal/mol|
|  sn= 2 | S(rot)=             -inf Eh      -inf kcal/mol|
|  sn= 3 | S(rot)=             -inf Eh      -inf kcal/mol|
|  sn= 4 | S(rot)=             -inf Eh      -inf kcal/mol|
|  sn= 5 | S(rot)=             -inf Eh      -inf kcal/mol|
|  sn= 6 | S(rot)=             -inf Eh      -inf kcal/mol|
|  sn= 7 | S(rot)=             -inf Eh      -inf kcal/mol|
|  sn= 8 | S(rot)=             -inf Eh      -inf kcal/mol|
|  sn= 9 | S(rot)=             -inf Eh      -inf kcal/mol|
|  sn=10 | S(rot)=             -inf Eh      -inf kcal/mol|
|  sn=11 | S(rot)=             -inf Eh      -inf kcal/mol|
|  sn=12 | S(rot)=             -inf Eh      -inf kcal/mol|
 --------------------------------------------------------

-------------------
GIBBS FREE ENERGY
-------------------

The Gibbs free energy is G = H - T*S

Total enthalpy                    ...   -246.86537117 Eh
Total entropy correction          ...     -0.02682260 Eh    -16.83 kcal/mol
-----------------------------------------------------------------------
Final Gibbs free energy         ...   -246.89219378 Eh

For completeness - the Gibbs free energy minus the electronic energy
G-E(el)                           ...     -0.02219255 Eh    -13.93 kcal/mol

                             ****ORCA TERMINATED NORMALLY****
TOTAL RUN TIME: 0 days 0 hours 0 minutes 52 seconds 345 msec
