                         Program Version 4.2.0 -  RELEASE  -
|  1> #
|  2> # Ag02N0 M06-D3/Def2-TZVPPD
|  3> #
|  4> ! m06 d3zero def2-tzvppd def2/jk grid4 nofinalgrid opt xyzfile numfreq
|  5>
|  6> *xyz 0 1
|  7> Ag       0.000000    0.000000    1.261821
|  8> Ag       0.000000    0.000000   -1.261821
|  9> *
| 10>
| 11> %maxcore 5000
| 12>
| 13> %pal
| 14> nprocs = 24
| 15> end
| 16>
| 17>
| 18>                          ****END OF INPUT****
 Total Charge           Charge          ....    0
 Multiplicity           Mult            ....    1
 Number of Electrons    NEL             ....   38
Dispersion correction           -0.000001538
FINAL SINGLE POINT ENERGY      -294.090485760489
Dispersion correction            ... done
Dispersion correction           -0.000001575
FINAL SINGLE POINT ENERGY      -294.090612657884
Dispersion correction            ... done
Dispersion correction           -0.000001993
FINAL SINGLE POINT ENERGY      -294.090989881848
Dispersion correction            ... done
Dispersion correction           -0.000002100
FINAL SINGLE POINT ENERGY      -294.090890074133
Dispersion correction            ... done
Dispersion correction           -0.000002125
FINAL SINGLE POINT ENERGY      -294.090859451628
Dispersion correction            ... done
                    ***********************HURRAY********************

CARTESIAN COORDINATES (ANGSTROEM)
---------------------------------
  Ag     0.000000    0.000000    1.313456
  Ag     0.000000    0.000000   -1.313456

 Multiplicity           Mult            ....    1
 Number of Electrons    NEL             ....   38
 Basis Dimension        Dim             ....  112

ORBITAL ENERGIES
----------------

  NO   OCC          E(Eh)            E(eV)
   0   2.0000      -3.716985      -101.1443
   1   2.0000      -3.716587      -101.1335
   2   2.0000      -2.327205       -63.3265
   3   2.0000      -2.323371       -63.2221
   4   2.0000      -2.323371       -63.2221
   5   2.0000      -2.322966       -63.2111
   6   2.0000      -2.322966       -63.2111
   7   2.0000      -2.322390       -63.1954
   8   2.0000      -0.370537       -10.0828
   9   2.0000      -0.355988        -9.6869
  10   2.0000      -0.355988        -9.6869
  11   2.0000      -0.340141        -9.2557
  12   2.0000      -0.340140        -9.2557
  13   2.0000      -0.333959        -9.0875
  14   2.0000      -0.333957        -9.0874
  15   2.0000      -0.324380        -8.8268
  16   2.0000      -0.324380        -8.8268
  17   2.0000      -0.318452        -8.6655
  18   2.0000      -0.217147        -5.9089
  19   0.0000      -0.094861        -2.5813
  20   0.0000      -0.025330        -0.6893
  21   0.0000      -0.025330        -0.6893
  22   0.0000      -0.008605        -0.2342
  23   0.0000       0.024083         0.6553

MULLIKEN ATOMIC CHARGES
-----------------------
   0 Ag:    0.000001
   1 Ag:   -0.000001
Sum of atomic charges:   -0.0000000

LOEWDIN ATOMIC CHARGES
----------------------
   0 Ag:    0.000000
   1 Ag:   -0.000000

  Mayer bond orders larger than 0.100000
B(  0-Ag,  1-Ag) :   1.0371

Dispersion correction           -0.000002126
FINAL SINGLE POINT ENERGY      -294.090858285002

DIPOLE MOMENT
-------------
                                X             Y             Z
Electronic contribution:     -0.00000       0.00000       0.00000
Nuclear contribution   :      0.00000       0.00000       0.00000
                        -----------------------------------------
Total Dipole Moment    :     -0.00000       0.00000       0.00000
                        -----------------------------------------
Magnitude (a.u.)       :      0.00000
Magnitude (Debye)      :      0.00000

VIBRATIONAL FREQUENCIES
-----------------------

Scaling factor for frequencies =  1.000000000 (already applied!)

   0:         0.00 cm**-1
   1:         0.00 cm**-1
   2:         0.00 cm**-1
   3:         0.00 cm**-1
   4:         0.00 cm**-1
   5:       169.42 cm**-1

IR SPECTRUM
-----------

 Mode    freq (cm**-1)   T**2         TX         TY         TZ
-------------------------------------------------------------------
   5:       169.42    0.000000  (  0.000068   0.000170   0.000171)

--------------------------
THERMOCHEMISTRY AT 298.15K
--------------------------

Temperature         ... 298.15 K
Pressure            ... 1.00 atm
Total Mass          ... 215.74 AMU
The molecule is recognized as being linear

Throughout the following assumptions are being made:
  (1) The electronic state is orbitally nondegenerate
  (2) There are no thermally accessible electronically excited states
  (3) Hindered rotations indicated by low frequency modes are not
      treated as such but are treated as vibrations and this may
      cause some error
  (4) All equations used are the standard statistical mechanics
      equations for an ideal gas
  (5) All vibrations are strictly harmonic

freq.     169.42  E(vib)   ...       0.38

------------
INNER ENERGY
------------

The inner energy is: U= E(el) + E(ZPE) + E(vib) + E(rot) + E(trans)
    E(el)   - is the total energy from the electronic structure calculation
              = E(kin-el) + E(nuc-el) + E(el-el) + E(nuc-nuc)
    E(ZPE)  - the the zero temperature vibrational energy from the frequency calculation
    E(vib)  - the the finite temperature correction to E(ZPE) due to population
              of excited vibrational states
    E(rot)  - is the rotational thermal energy
    E(trans)- is the translational thermal energy

Summary of contributions to the inner energy U:
Electronic energy                ...   -294.09085829 Eh
Zero point energy                ...      0.00038596 Eh       0.24 kcal/mol
Thermal vibrational correction   ...      0.00061026 Eh       0.38 kcal/mol
Thermal rotational correction    ...      0.00094418 Eh       0.59 kcal/mol
Thermal translational correction ...      0.00141627 Eh       0.89 kcal/mol
-----------------------------------------------------------------------
Total thermal energy                   -294.08750161 Eh

Summary of corrections to the electronic energy:
(perhaps to be used in another calculation)
Total thermal correction                  0.00297071 Eh       1.86 kcal/mol
Non-thermal (ZPE) correction              0.00038596 Eh       0.24 kcal/mol
-----------------------------------------------------------------------
Total correction                          0.00335667 Eh       2.11 kcal/mol

--------
ENTHALPY
--------

The enthalpy is H = U + kB*T
                kB is Boltzmann's constant
Total free energy                 ...   -294.08750161 Eh
Thermal Enthalpy correction       ...      0.00094421 Eh       0.59 kcal/mol
-----------------------------------------------------------------------
Total Enthalpy                    ...   -294.08655740 Eh

Note: Rotational entropy computed according to Herzberg
Infrared and Raman Spectra, Chapter V,1, Van Nostrand Reinhold, 1945
Point Group:  Dinfh, Symmetry Number:   2
Rotational constants in cm-1:     0.000000     0.045293     0.045293

Vibrational entropy computed according to the QRRHO of S. Grimme
Chem.Eur.J. 2012 18 9955

-------
ENTROPY
-------

The entropy contributions are T*S = T*(S(el)+S(vib)+S(rot)+S(trans))
     S(el)   - electronic entropy
     S(vib)  - vibrational entropy
     S(rot)  - rotational entropy
     S(trans)- translational entropy
The entropies will be listed as mutliplied by the temperature to get
units of energy

Electronic entropy                ...      0.00000000 Eh      0.00 kcal/mol
Vibrational entropy               ...      0.00115457 Eh      0.72 kcal/mol
Rotational entropy                ...      0.00824766 Eh      5.18 kcal/mol
Translational entropy             ...      0.01996022 Eh     12.53 kcal/mol
-----------------------------------------------------------------------
Final entropy term                ...      0.02936245 Eh     18.43 kcal/mol

In case the symmetry of your molecule has not been determined correctly
or in case you have a reason to use a different symmetry number we print
out the resulting rotational entropy values for sn=1,12 :
 --------------------------------------------------------
|  sn= 1 | S(rot)=             -inf Eh      -inf kcal/mol|
|  sn= 2 | S(rot)=             -inf Eh      -inf kcal/mol|
|  sn= 3 | S(rot)=             -inf Eh      -inf kcal/mol|
|  sn= 4 | S(rot)=             -inf Eh      -inf kcal/mol|
|  sn= 5 | S(rot)=             -inf Eh      -inf kcal/mol|
|  sn= 6 | S(rot)=             -inf Eh      -inf kcal/mol|
|  sn= 7 | S(rot)=             -inf Eh      -inf kcal/mol|
|  sn= 8 | S(rot)=             -inf Eh      -inf kcal/mol|
|  sn= 9 | S(rot)=             -inf Eh      -inf kcal/mol|
|  sn=10 | S(rot)=             -inf Eh      -inf kcal/mol|
|  sn=11 | S(rot)=             -inf Eh      -inf kcal/mol|
|  sn=12 | S(rot)=             -inf Eh      -inf kcal/mol|
 --------------------------------------------------------

-------------------
GIBBS FREE ENERGY
-------------------

The Gibbs free energy is G = H - T*S

Total enthalpy                    ...   -294.08655740 Eh
Total entropy correction          ...     -0.02936245 Eh    -18.43 kcal/mol
-----------------------------------------------------------------------
Final Gibbs free energy         ...   -294.11591986 Eh

For completeness - the Gibbs free energy minus the electronic energy
G-E(el)                           ...     -0.02506157 Eh    -15.73 kcal/mol

                             ****ORCA TERMINATED NORMALLY****
TOTAL RUN TIME: 0 days 0 hours 1 minutes 6 seconds 910 msec
