                         Program Version 4.2.0 -  RELEASE  -
|  1> #
|  2> # Ag03C1_LIN M06-D3/Def2-TZVPPD
|  3> #
|  4> ! m06 d3zero def2-tzvppd def2/jk grid4 nofinalgrid opt xyzfile numfreq
|  5>
|  6> *xyz 1 1
|  7> Ag       0.000000    0.000000    0.000000
|  8> Ag       0.000000    0.000000    2.629319
|  9> Ag       0.000000    0.000000   -2.629319
| 10> *
| 11>
| 12> %maxcore 5000
| 13>
| 14> %pal
| 15> nprocs = 24
| 16> end
| 17>
| 18>
| 19>                          ****END OF INPUT****
 Total Charge           Charge          ....    1
 Multiplicity           Mult            ....    1
 Number of Electrons    NEL             ....   56
Dispersion correction           -0.000190855
FINAL SINGLE POINT ENERGY      -440.874808354603
Dispersion correction            ... done
Dispersion correction           -0.000190419
FINAL SINGLE POINT ENERGY      -440.874917744470
Dispersion correction            ... done
Dispersion correction           -0.000183316
FINAL SINGLE POINT ENERGY      -440.875216423105
Dispersion correction            ... done
Dispersion correction           -0.000181795
FINAL SINGLE POINT ENERGY      -440.875112264095
Dispersion correction            ... done
Dispersion correction           -0.000181536
FINAL SINGLE POINT ENERGY      -440.875090883813
Dispersion correction            ... done
                    ***********************HURRAY********************

CARTESIAN COORDINATES (ANGSTROEM)
---------------------------------
  Ag    -0.000000    0.000000   -0.000000
  Ag     0.000000   -0.000000    2.719364
  Ag     0.000000   -0.000000   -2.719364

 Multiplicity           Mult            ....    1
 Number of Electrons    NEL             ....   56
 Basis Dimension        Dim             ....  168

ORBITAL ENERGIES
----------------

  NO   OCC          E(Eh)            E(eV)
   0   2.0000      -3.921600      -106.7122
   1   2.0000      -3.921599      -106.7121
   2   2.0000      -3.880053      -105.5816
   3   2.0000      -2.530485       -68.8580
   4   2.0000      -2.530346       -68.8542
   5   2.0000      -2.529251       -68.8244
   6   2.0000      -2.529251       -68.8244
   7   2.0000      -2.529244       -68.8242
   8   2.0000      -2.529244       -68.8242
   9   2.0000      -2.489976       -67.7557
  10   2.0000      -2.485126       -67.6237
  11   2.0000      -2.485126       -67.6237
  12   2.0000      -0.569951       -15.5091
  13   2.0000      -0.553135       -15.0516
  14   2.0000      -0.553135       -15.0516
  15   2.0000      -0.548698       -14.9308
  16   2.0000      -0.546528       -14.8718
  17   2.0000      -0.546528       -14.8718
  18   2.0000      -0.544108       -14.8059
  19   2.0000      -0.544098       -14.8056
  20   2.0000      -0.543869       -14.7994
  21   2.0000      -0.543860       -14.7992
  22   2.0000      -0.496805       -13.5188
  23   2.0000      -0.496805       -13.5188
  24   2.0000      -0.496481       -13.5099
  25   2.0000      -0.496464       -13.5095
  26   2.0000      -0.493667       -13.4334
  27   2.0000      -0.394069       -10.7232
  28   0.0000      -0.316107        -8.6017
  29   0.0000      -0.223299        -6.0763
  30   0.0000      -0.182086        -4.9548
  31   0.0000      -0.182086        -4.9548
  32   0.0000      -0.159178        -4.3315

MULLIKEN ATOMIC CHARGES
-----------------------
   0 Ag:   -0.039423
   1 Ag:    0.519711
   2 Ag:    0.519712
Sum of atomic charges:    1.0000000

LOEWDIN ATOMIC CHARGES
----------------------
   0 Ag:    0.122506
   1 Ag:    0.438747
   2 Ag:    0.438747

  Mayer bond orders larger than 0.100000
B(  0-Ag,  1-Ag) :   0.5701 B(  0-Ag,  2-Ag) :   0.5701 B(  1-Ag,  2-Ag) :   0.2505

Dispersion correction           -0.000181528
FINAL SINGLE POINT ENERGY      -440.875090269513

DIPOLE MOMENT
-------------
                                X             Y             Z
Electronic contribution:     -0.00000       0.00000       0.00000
Nuclear contribution   :      0.00000       0.00000      -0.00000
                        -----------------------------------------
Total Dipole Moment    :     -0.00000       0.00000       0.00000
                        -----------------------------------------
Magnitude (a.u.)       :      0.00000
Magnitude (Debye)      :      0.00000

VIBRATIONAL FREQUENCIES
-----------------------

Scaling factor for frequencies =  1.000000000 (already applied!)

   0:         0.00 cm**-1
   1:         0.00 cm**-1
   2:         0.00 cm**-1
   3:         0.00 cm**-1
   4:         0.00 cm**-1
   5:         0.00 cm**-1
   6:       -24.71 cm**-1 ***imaginary mode***
   7:        98.57 cm**-1
   8:       165.21 cm**-1

IR SPECTRUM
-----------

 Mode    freq (cm**-1)   T**2         TX         TY         TZ
-------------------------------------------------------------------
   7:        98.57    0.000000  ( -0.000002   0.000001   0.000004)
   8:       165.21   23.233865  (  0.000003  -0.000007  -4.820152)

--------------------------
THERMOCHEMISTRY AT 298.15K
--------------------------

Temperature         ... 298.15 K
Pressure            ... 1.00 atm
Total Mass          ... 323.61 AMU
The molecule is recognized as being linear

Throughout the following assumptions are being made:
  (1) The electronic state is orbitally nondegenerate
  (2) There are no thermally accessible electronically excited states
  (3) Hindered rotations indicated by low frequency modes are not
      treated as such but are treated as vibrations and this may
      cause some error
  (4) All equations used are the standard statistical mechanics
      equations for an ideal gas
  (5) All vibrations are strictly harmonic

freq.      98.57  E(vib)   ...       0.46
freq.     165.21  E(vib)   ...       0.39

------------
INNER ENERGY
------------

The inner energy is: U= E(el) + E(ZPE) + E(vib) + E(rot) + E(trans)
    E(el)   - is the total energy from the electronic structure calculation
              = E(kin-el) + E(nuc-el) + E(el-el) + E(nuc-nuc)
    E(ZPE)  - the the zero temperature vibrational energy from the frequency calculation
    E(vib)  - the the finite temperature correction to E(ZPE) due to population
              of excited vibrational states
    E(rot)  - is the rotational thermal energy
    E(trans)- is the translational thermal energy

Summary of contributions to the inner energy U:
Electronic energy                ...   -440.87509027 Eh
Zero point energy                ...      0.00060093 Eh       0.38 kcal/mol
Thermal vibrational correction   ...      0.00135471 Eh       0.85 kcal/mol
Thermal rotational correction    ...      0.00094418 Eh       0.59 kcal/mol
Thermal translational correction ...      0.00141627 Eh       0.89 kcal/mol
-----------------------------------------------------------------------
Total thermal energy                   -440.87077418 Eh

Summary of corrections to the electronic energy:
(perhaps to be used in another calculation)
Total thermal correction                  0.00371516 Eh       2.33 kcal/mol
Non-thermal (ZPE) correction              0.00060093 Eh       0.38 kcal/mol
-----------------------------------------------------------------------
Total correction                          0.00431609 Eh       2.71 kcal/mol

--------
ENTHALPY
--------

The enthalpy is H = U + kB*T
                kB is Boltzmann's constant
Total free energy                 ...   -440.87077418 Eh
Thermal Enthalpy correction       ...      0.00094421 Eh       0.59 kcal/mol
-----------------------------------------------------------------------
Total Enthalpy                    ...   -440.86982997 Eh

Note: Rotational entropy computed according to Herzberg
Infrared and Raman Spectra, Chapter V,1, Van Nostrand Reinhold, 1945
Point Group:  Dinfh, Symmetry Number:   2
Rotational constants in cm-1:     0.000000     0.010567     0.010567

Vibrational entropy computed according to the QRRHO of S. Grimme
Chem.Eur.J. 2012 18 9955

-------
ENTROPY
-------

The entropy contributions are T*S = T*(S(el)+S(vib)+S(rot)+S(trans))
     S(el)   - electronic entropy
     S(vib)  - vibrational entropy
     S(rot)  - rotational entropy
     S(trans)- translational entropy
The entropies will be listed as mutliplied by the temperature to get
units of energy

Electronic entropy                ...      0.00000000 Eh      0.00 kcal/mol
Vibrational entropy               ...      0.00268009 Eh      1.68 kcal/mol
Rotational entropy                ...      0.00962189 Eh      6.04 kcal/mol
Translational entropy             ...      0.02053447 Eh     12.89 kcal/mol
-----------------------------------------------------------------------
Final entropy term                ...      0.03283645 Eh     20.61 kcal/mol

In case the symmetry of your molecule has not been determined correctly
or in case you have a reason to use a different symmetry number we print
out the resulting rotational entropy values for sn=1,12 :
 --------------------------------------------------------
|  sn= 1 | S(rot)=       0.00015322 Eh      0.10 kcal/mol|
|  sn= 2 | S(rot)=      -0.00050124 Eh     -0.31 kcal/mol|
|  sn= 3 | S(rot)=      -0.00088407 Eh     -0.55 kcal/mol|
|  sn= 4 | S(rot)=      -0.00115570 Eh     -0.73 kcal/mol|
|  sn= 5 | S(rot)=      -0.00136638 Eh     -0.86 kcal/mol|
|  sn= 6 | S(rot)=      -0.00153853 Eh     -0.97 kcal/mol|
|  sn= 7 | S(rot)=      -0.00168408 Eh     -1.06 kcal/mol|
|  sn= 8 | S(rot)=      -0.00181015 Eh     -1.14 kcal/mol|
|  sn= 9 | S(rot)=      -0.00192136 Eh     -1.21 kcal/mol|
|  sn=10 | S(rot)=      -0.00202084 Eh     -1.27 kcal/mol|
|  sn=11 | S(rot)=      -0.00211083 Eh     -1.32 kcal/mol|
|  sn=12 | S(rot)=      -0.00219299 Eh     -1.38 kcal/mol|
 --------------------------------------------------------

-------------------
GIBBS FREE ENERGY
-------------------

The Gibbs free energy is G = H - T*S

Total enthalpy                    ...   -440.86982997 Eh
Total entropy correction          ...     -0.03283645 Eh    -20.61 kcal/mol
-----------------------------------------------------------------------
Final Gibbs free energy         ...   -440.90266642 Eh

For completeness - the Gibbs free energy minus the electronic energy
G-E(el)                           ...     -0.02757615 Eh    -17.30 kcal/mol

                             ****ORCA TERMINATED NORMALLY****
TOTAL RUN TIME: 0 days 0 hours 2 minutes 25 seconds 711 msec
