                         Program Version 4.2.0 -  RELEASE  -
|  1> #
|  2> # Ag03N0_D3H M06-D3/Def2-TZVPPD
|  3> #
|  4> ! m06 d3zero def2-tzvppd def2/jk grid4 nofinalgrid opt xyzfile numfreq
|  5>
|  6> *xyz 0 2
|  7> Ag       0.000000    1.533951   -0.000000
|  8> Ag       1.328441   -0.766976    0.000000
|  9> Ag      -1.328441   -0.766976   -0.000000
| 10> *
| 11>
| 12> %maxcore 5000
| 13>
| 14> %pal
| 15> nprocs = 24
| 16> end
| 17>
| 18>
| 19>                          ****END OF INPUT****
 Total Charge           Charge          ....    0
 Multiplicity           Mult            ....    2
 Number of Electrons    NEL             ....   57
Dispersion correction           -0.000006885
FINAL SINGLE POINT ENERGY      -441.131482747722
Dispersion correction            ... done
Dispersion correction           -0.000007052
FINAL SINGLE POINT ENERGY      -441.131996090802
Dispersion correction            ... done
Dispersion correction           -0.000008944
FINAL SINGLE POINT ENERGY      -441.134866030460
Dispersion correction            ... done
FINAL SINGLE POINT ENERGY      -441.135126855838
FINAL SINGLE POINT ENERGY      -441.135128696612
FINAL SINGLE POINT ENERGY      -441.135128079431
FINAL SINGLE POINT ENERGY      -441.135140433929
FINAL SINGLE POINT ENERGY      -441.135181440565
Dispersion correction            ... done
Dispersion correction           -0.000010563
FINAL SINGLE POINT ENERGY      -441.135220746526
Dispersion correction            ... done
Dispersion correction           -0.000010495
FINAL SINGLE POINT ENERGY      -441.135238440543
Dispersion correction            ... done
                    ***********************HURRAY********************

CARTESIAN COORDINATES (ANGSTROEM)
---------------------------------
  Ag    -0.000001    1.685294    0.000000
  Ag     1.328696   -0.842648    0.000000
  Ag    -1.328695   -0.842647    0.000000

 Multiplicity           Mult            ....    2
 Number of Electrons    NEL             ....   57
 Basis Dimension        Dim             ....  168

ORBITAL ENERGIES
----------------
                 SPIN UP ORBITALS
  NO   OCC          E(Eh)            E(eV)
   0   1.0000      -3.734503      -101.6210
   1   1.0000      -3.734163      -101.6117
   2   1.0000      -3.711004      -100.9816
   3   1.0000      -2.344582       -63.7993
   4   1.0000      -2.340999       -63.7018
   5   1.0000      -2.340894       -63.6990
   6   1.0000      -2.340870       -63.6983
   7   1.0000      -2.340517       -63.6887
   8   1.0000      -2.340035       -63.6756
   9   1.0000      -2.318289       -63.0839
  10   1.0000      -2.317697       -63.0677
  11   1.0000      -2.316090       -63.0240
  12   1.0000      -0.389495       -10.5987
  13   1.0000      -0.381670       -10.3858
  14   1.0000      -0.374006       -10.1772
  15   1.0000      -0.364238        -9.9114
  16   1.0000      -0.361142        -9.8272
  17   1.0000      -0.360934        -9.8215
  18   1.0000      -0.353957        -9.6317
  19   1.0000      -0.344823        -9.3831
  20   1.0000      -0.342270        -9.3136
  21   1.0000      -0.339971        -9.2511
  22   1.0000      -0.329503        -8.9662
  23   1.0000      -0.328629        -8.9425
  24   1.0000      -0.327021        -8.8987
  25   1.0000      -0.326624        -8.8879
  26   1.0000      -0.318869        -8.6769
  27   1.0000      -0.257100        -6.9961
  28   1.0000      -0.152860        -4.1595
  29   0.0000      -0.109396        -2.9768
  30   0.0000      -0.044269        -1.2046
  31   0.0000      -0.023022        -0.6265
  32   0.0000      -0.012335        -0.3357
  33   0.0000      -0.008379        -0.2280

                 SPIN DOWN ORBITALS
  NO   OCC          E(Eh)            E(eV)
   0   1.0000      -3.733770      -101.6011
   1   1.0000      -3.733424      -101.5916
   2   1.0000      -3.708552      -100.9148
   3   1.0000      -2.344187       -63.7886
   4   1.0000      -2.340397       -63.6854
   5   1.0000      -2.340045       -63.6759
   6   1.0000      -2.339869       -63.6711
   7   1.0000      -2.339822       -63.6698
   8   1.0000      -2.339460       -63.6600
   9   1.0000      -2.315981       -63.0210
  10   1.0000      -2.315418       -63.0057
  11   1.0000      -2.314409       -62.9783
  12   1.0000      -0.388566       -10.5734
  13   1.0000      -0.380568       -10.3558
  14   1.0000      -0.373579       -10.1656
  15   1.0000      -0.362537        -9.8651
  16   1.0000      -0.360052        -9.7975
  17   1.0000      -0.360036        -9.7971
  18   1.0000      -0.353055        -9.6071
  19   1.0000      -0.343674        -9.3519
  20   1.0000      -0.341832        -9.3017
  21   1.0000      -0.339252        -9.2315
  22   1.0000      -0.327540        -8.9128
  23   1.0000      -0.326787        -8.8923
  24   1.0000      -0.324668        -8.8347
  25   1.0000      -0.324216        -8.8224
  26   1.0000      -0.316368        -8.6088
  27   1.0000      -0.248602        -6.7648
  28   0.0000      -0.104759        -2.8506
  29   0.0000      -0.097544        -2.6543
  30   0.0000      -0.041255        -1.1226
  31   0.0000      -0.015720        -0.4278
  32   0.0000      -0.001642        -0.0447

MULLIKEN ATOMIC CHARGES AND SPIN POPULATIONS
--------------------------------------------
   0 Ag:   -0.098609    0.606262
   1 Ag:    0.049304    0.196872
   2 Ag:    0.049305    0.196866
Sum of atomic charges         :   -0.0000000

LOEWDIN ATOMIC CHARGES AND SPIN POPULATIONS
-------------------------------------------
   0 Ag:   -0.073396    0.503785
   1 Ag:    0.036698    0.248109
   2 Ag:    0.036699    0.248106

  Mayer bond orders larger than 0.100000
B(  0-Ag,  1-Ag) :   0.4402 B(  0-Ag,  2-Ag) :   0.4402 B(  1-Ag,  2-Ag) :   0.7956

Dispersion correction           -0.000010477
FINAL SINGLE POINT ENERGY      -441.135239319144

DIPOLE MOMENT
-------------
                                X             Y             Z
Electronic contribution:     -0.00001      -0.46604       0.00000
Nuclear contribution   :     -0.00000      -0.00000       0.00000
                        -----------------------------------------
Total Dipole Moment    :     -0.00001      -0.46604       0.00000
                        -----------------------------------------
Magnitude (a.u.)       :      0.46604
Magnitude (Debye)      :      1.18457

VIBRATIONAL FREQUENCIES
-----------------------

Scaling factor for frequencies =  1.000000000 (already applied!)

   0:         0.00 cm**-1
   1:         0.00 cm**-1
   2:         0.00 cm**-1
   3:         0.00 cm**-1
   4:         0.00 cm**-1
   5:         0.00 cm**-1
   6:       -87.23 cm**-1 ***imaginary mode***
   7:       105.98 cm**-1
   8:       168.35 cm**-1

IR SPECTRUM
-----------

 Mode    freq (cm**-1)   T**2         TX         TY         TZ
-------------------------------------------------------------------
   7:       105.98    0.062076  (  0.000341  -0.249150   0.000458)
   8:       168.35    0.213011  (  0.000028  -0.461531   0.000100)

--------------------------
THERMOCHEMISTRY AT 298.15K
--------------------------

Temperature         ... 298.15 K
Pressure            ... 1.00 atm
Total Mass          ... 323.61 AMU

Throughout the following assumptions are being made:
  (1) The electronic state is orbitally nondegenerate
      but the spin degeneracy is treated
  (2) There are no thermally accessible electronically excited states
  (3) Hindered rotations indicated by low frequency modes are not
      treated as such but are treated as vibrations and this may
      cause some error
  (4) All equations used are the standard statistical mechanics
      equations for an ideal gas
  (5) All vibrations are strictly harmonic

freq.     105.98  E(vib)   ...       0.45
freq.     168.35  E(vib)   ...       0.38

------------
INNER ENERGY
------------

The inner energy is: U= E(el) + E(ZPE) + E(vib) + E(rot) + E(trans)
    E(el)   - is the total energy from the electronic structure calculation
              = E(kin-el) + E(nuc-el) + E(el-el) + E(nuc-nuc)
    E(ZPE)  - the the zero temperature vibrational energy from the frequency calculation
    E(vib)  - the the finite temperature correction to E(ZPE) due to population
              of excited vibrational states
    E(rot)  - is the rotational thermal energy
    E(trans)- is the translational thermal energy

Summary of contributions to the inner energy U:
Electronic energy                ...   -441.13523932 Eh
Zero point energy                ...      0.00062497 Eh       0.39 kcal/mol
Thermal vibrational correction   ...      0.00133531 Eh       0.84 kcal/mol
Thermal rotational correction    ...      0.00141627 Eh       0.89 kcal/mol
Thermal translational correction ...      0.00141627 Eh       0.89 kcal/mol
-----------------------------------------------------------------------
Total thermal energy                   -441.13044650 Eh

Summary of corrections to the electronic energy:
(perhaps to be used in another calculation)
Total thermal correction                  0.00416785 Eh       2.62 kcal/mol
Non-thermal (ZPE) correction              0.00062497 Eh       0.39 kcal/mol
-----------------------------------------------------------------------
Total correction                          0.00479282 Eh       3.01 kcal/mol

--------
ENTHALPY
--------

The enthalpy is H = U + kB*T
                kB is Boltzmann's constant
Total free energy                 ...   -441.13044650 Eh
Thermal Enthalpy correction       ...      0.00094421 Eh       0.59 kcal/mol
-----------------------------------------------------------------------
Total Enthalpy                    ...   -441.12950230 Eh

Note: Rotational entropy computed according to Herzberg
Infrared and Raman Spectra, Chapter V,1, Van Nostrand Reinhold, 1945
Point Group:  Cs, Symmetry Number:   1
Rotational constants in cm-1:     0.044260     0.036682     0.020058

Vibrational entropy computed according to the QRRHO of S. Grimme
Chem.Eur.J. 2012 18 9955

-------
ENTROPY
-------

The entropy contributions are T*S = T*(S(el)+S(vib)+S(rot)+S(trans))
     S(el)   - electronic entropy
     S(vib)  - vibrational entropy
     S(rot)  - rotational entropy
     S(trans)- translational entropy
The entropies will be listed as mutliplied by the temperature to get
units of energy

Electronic entropy                ...      0.00065446 Eh      0.41 kcal/mol
Vibrational entropy               ...      0.00263310 Eh      1.65 kcal/mol
Rotational entropy                ...      0.01438857 Eh      9.03 kcal/mol
Translational entropy             ...      0.02053447 Eh     12.89 kcal/mol
-----------------------------------------------------------------------
Final entropy term                ...      0.03821059 Eh     23.98 kcal/mol

In case the symmetry of your molecule has not been determined correctly
or in case you have a reason to use a different symmetry number we print
out the resulting rotational entropy values for sn=1,12 :
 --------------------------------------------------------
|  sn= 1 | S(rot)=       0.01438857 Eh      9.03 kcal/mol|
|  sn= 2 | S(rot)=       0.01373411 Eh      8.62 kcal/mol|
|  sn= 3 | S(rot)=       0.01335128 Eh      8.38 kcal/mol|
|  sn= 4 | S(rot)=       0.01307965 Eh      8.21 kcal/mol|
|  sn= 5 | S(rot)=       0.01286897 Eh      8.08 kcal/mol|
|  sn= 6 | S(rot)=       0.01269682 Eh      7.97 kcal/mol|
|  sn= 7 | S(rot)=       0.01255127 Eh      7.88 kcal/mol|
|  sn= 8 | S(rot)=       0.01242520 Eh      7.80 kcal/mol|
|  sn= 9 | S(rot)=       0.01231399 Eh      7.73 kcal/mol|
|  sn=10 | S(rot)=       0.01221451 Eh      7.66 kcal/mol|
|  sn=11 | S(rot)=       0.01212452 Eh      7.61 kcal/mol|
|  sn=12 | S(rot)=       0.01204236 Eh      7.56 kcal/mol|
 --------------------------------------------------------

-------------------
GIBBS FREE ENERGY
-------------------

The Gibbs free energy is G = H - T*S

Total enthalpy                    ...   -441.12950230 Eh
Total entropy correction          ...     -0.03821059 Eh    -23.98 kcal/mol
-----------------------------------------------------------------------
Final Gibbs free energy         ...   -441.16771289 Eh

For completeness - the Gibbs free energy minus the electronic energy
G-E(el)                           ...     -0.03247357 Eh    -20.38 kcal/mol

                             ****ORCA TERMINATED NORMALLY****
TOTAL RUN TIME: 0 days 0 hours 4 minutes 22 seconds 766 msec
