                         Program Version 4.2.0 -  RELEASE  -
|  1> #
|  2> # Ag03N0_LIN M06-D3/Def2-TZVPPD
|  3> #
|  4> ! m06 d3zero def2-tzvppd def2/jk grid4 nofinalgrid opt xyzfile numfreq
|  5>
|  6> *xyz 0 2
|  7> Ag       0.000000    0.000000    0.000000
|  8> Ag       0.000000    0.000000    2.592532
|  9> Ag       0.000000    0.000000   -2.592532
| 10> *
| 11>
| 12> %maxcore 5000
| 13>
| 14> %pal
| 15> nprocs = 24
| 16> end
| 17>
| 18>
| 19>                          ****END OF INPUT****
 Total Charge           Charge          ....    0
 Multiplicity           Mult            ....    2
 Number of Electrons    NEL             ....   57
Dispersion correction           -0.000192554
FINAL SINGLE POINT ENERGY      -441.134353471650
Dispersion correction            ... done
Dispersion correction           -0.000192354
FINAL SINGLE POINT ENERGY      -441.134520015880
Dispersion correction            ... done
Dispersion correction           -0.000187178
FINAL SINGLE POINT ENERGY      -441.135122957716
Dispersion correction            ... done
Dispersion correction           -0.000185725
FINAL SINGLE POINT ENERGY      -441.135022577055
Dispersion correction            ... done
Dispersion correction           -0.000185493
FINAL SINGLE POINT ENERGY      -441.135002007071
Dispersion correction            ... done
                    ***********************HURRAY********************

CARTESIAN COORDINATES (ANGSTROEM)
---------------------------------
  Ag     0.000000    0.000000    0.000000
  Ag    -0.000000   -0.000000    2.687556
  Ag    -0.000000   -0.000000   -2.687556

 Multiplicity           Mult            ....    2
 Number of Electrons    NEL             ....   57
 Basis Dimension        Dim             ....  168

ORBITAL ENERGIES
----------------
                 SPIN UP ORBITALS
  NO   OCC          E(Eh)            E(eV)
   0   1.0000      -3.727817      -101.4390
   1   1.0000      -3.727814      -101.4390
   2   1.0000      -3.713998      -101.0630
   3   1.0000      -2.336116       -63.5690
   4   1.0000      -2.335602       -63.5550
   5   1.0000      -2.334097       -63.5140
   6   1.0000      -2.334097       -63.5140
   7   1.0000      -2.334096       -63.5140
   8   1.0000      -2.334096       -63.5140
   9   1.0000      -2.321651       -63.1753
  10   1.0000      -2.320050       -63.1318
  11   1.0000      -2.320050       -63.1318
  12   1.0000      -0.384853       -10.4724
  13   1.0000      -0.365385        -9.9426
  14   1.0000      -0.365385        -9.9426
  15   1.0000      -0.354287        -9.6406
  16   1.0000      -0.351879        -9.5751
  17   1.0000      -0.351879        -9.5751
  18   1.0000      -0.349413        -9.5080
  19   1.0000      -0.349405        -9.5078
  20   1.0000      -0.348534        -9.4841
  21   1.0000      -0.348526        -9.4839
  22   1.0000      -0.331864        -9.0305
  23   1.0000      -0.331851        -9.0301
  24   1.0000      -0.322451        -8.7743
  25   1.0000      -0.322451        -8.7743
  26   1.0000      -0.316024        -8.5994
  27   1.0000      -0.238570        -6.4918
  28   1.0000      -0.200860        -5.4657
  29   0.0000      -0.083520        -2.2727
  30   0.0000      -0.037970        -1.0332
  31   0.0000      -0.037970        -1.0332
  32   0.0000      -0.016529        -0.4498
  33   0.0000      -0.008141        -0.2215

                 SPIN DOWN ORBITALS
  NO   OCC          E(Eh)            E(eV)
   0   1.0000      -3.726040      -101.3907
   1   1.0000      -3.726036      -101.3906
   2   1.0000      -3.714451      -101.0754
   3   1.0000      -2.335210       -63.5443
   4   1.0000      -2.334599       -63.5277
   5   1.0000      -2.332611       -63.4736
   6   1.0000      -2.332611       -63.4736
   7   1.0000      -2.332601       -63.4733
   8   1.0000      -2.332601       -63.4733
   9   1.0000      -2.322096       -63.1875
  10   1.0000      -2.320297       -63.1385
  11   1.0000      -2.320297       -63.1385
  12   1.0000      -0.384871       -10.4729
  13   1.0000      -0.364351        -9.9145
  14   1.0000      -0.364351        -9.9145
  15   1.0000      -0.352794        -9.6000
  16   1.0000      -0.350081        -9.5262
  17   1.0000      -0.350081        -9.5262
  18   1.0000      -0.347598        -9.4586
  19   1.0000      -0.347589        -9.4584
  20   1.0000      -0.346600        -9.4315
  21   1.0000      -0.346591        -9.4312
  22   1.0000      -0.331904        -9.0316
  23   1.0000      -0.331890        -9.0312
  24   1.0000      -0.321365        -8.7448
  25   1.0000      -0.321365        -8.7448
  26   1.0000      -0.314151        -8.5485
  27   1.0000      -0.225600        -6.1389
  28   0.0000      -0.145079        -3.9478
  29   0.0000      -0.068958        -1.8764
  30   0.0000      -0.032702        -0.8899
  31   0.0000      -0.032702        -0.8899
  32   0.0000      -0.004933        -0.1342

MULLIKEN ATOMIC CHARGES AND SPIN POPULATIONS
--------------------------------------------
   0 Ag:   -0.093650    0.020909
   1 Ag:    0.046825    0.489545
   2 Ag:    0.046825    0.489545
Sum of atomic charges         :   -0.0000000

LOEWDIN ATOMIC CHARGES AND SPIN POPULATIONS
-------------------------------------------
   0 Ag:   -0.169105    0.269902
   1 Ag:    0.084552    0.365049
   2 Ag:    0.084552    0.365049

  Mayer bond orders larger than 0.100000
B(  0-Ag,  1-Ag) :   0.6627 B(  0-Ag,  2-Ag) :   0.6627 B(  1-Ag,  2-Ag) :   0.1819

Dispersion correction           -0.000185487
FINAL SINGLE POINT ENERGY      -441.135001439688

DIPOLE MOMENT
-------------
                                X             Y             Z
Electronic contribution:     -0.00000       0.00000      -0.00000
Nuclear contribution   :     -0.00000       0.00000       0.00000
                        -----------------------------------------
Total Dipole Moment    :     -0.00000       0.00000      -0.00000
                        -----------------------------------------
Magnitude (a.u.)       :      0.00000
Magnitude (Debye)      :      0.00000

VIBRATIONAL FREQUENCIES
-----------------------

Scaling factor for frequencies =  1.000000000 (already applied!)

   0:         0.00 cm**-1
   1:         0.00 cm**-1
   2:         0.00 cm**-1
   3:         0.00 cm**-1
   4:         0.00 cm**-1
   5:         0.00 cm**-1
   6:        27.90 cm**-1
   7:       107.64 cm**-1
   8:       173.62 cm**-1

IR SPECTRUM
-----------

 Mode    freq (cm**-1)   T**2         TX         TY         TZ
-------------------------------------------------------------------
   6:        27.90    0.205579  (  0.302835   0.337446   0.000026)
   7:       107.64    0.000000  ( -0.000316  -0.000212   0.000009)
   8:       173.62    0.950012  ( -0.000077   0.000210   0.974686)

--------------------------
THERMOCHEMISTRY AT 298.15K
--------------------------

Temperature         ... 298.15 K
Pressure            ... 1.00 atm
Total Mass          ... 323.61 AMU
The molecule is recognized as being linear

Throughout the following assumptions are being made:
  (1) The electronic state is orbitally nondegenerate
      but the spin degeneracy is treated
  (2) There are no thermally accessible electronically excited states
  (3) Hindered rotations indicated by low frequency modes are not
      treated as such but are treated as vibrations and this may
      cause some error
  (4) All equations used are the standard statistical mechanics
      equations for an ideal gas
  (5) All vibrations are strictly harmonic

freq.      27.90  E(vib)   ...       0.55
freq.     107.64  E(vib)   ...       0.45
freq.     173.62  E(vib)   ...       0.38

------------
INNER ENERGY
------------

The inner energy is: U= E(el) + E(ZPE) + E(vib) + E(rot) + E(trans)
    E(el)   - is the total energy from the electronic structure calculation
              = E(kin-el) + E(nuc-el) + E(el-el) + E(nuc-nuc)
    E(ZPE)  - the the zero temperature vibrational energy from the frequency calculation
    E(vib)  - the the finite temperature correction to E(ZPE) due to population
              of excited vibrational states
    E(rot)  - is the rotational thermal energy
    E(trans)- is the translational thermal energy

Summary of contributions to the inner energy U:
Electronic energy                ...   -441.13500144 Eh
Zero point energy                ...      0.00070430 Eh       0.44 kcal/mol
Thermal vibrational correction   ...      0.00220548 Eh       1.38 kcal/mol
Thermal rotational correction    ...      0.00094418 Eh       0.59 kcal/mol
Thermal translational correction ...      0.00141627 Eh       0.89 kcal/mol
-----------------------------------------------------------------------
Total thermal energy                   -441.12973121 Eh

Summary of corrections to the electronic energy:
(perhaps to be used in another calculation)
Total thermal correction                  0.00456593 Eh       2.87 kcal/mol
Non-thermal (ZPE) correction              0.00070430 Eh       0.44 kcal/mol
-----------------------------------------------------------------------
Total correction                          0.00527023 Eh       3.31 kcal/mol

--------
ENTHALPY
--------

The enthalpy is H = U + kB*T
                kB is Boltzmann's constant
Total free energy                 ...   -441.12973121 Eh
Thermal Enthalpy correction       ...      0.00094421 Eh       0.59 kcal/mol
-----------------------------------------------------------------------
Total Enthalpy                    ...   -441.12878700 Eh

Note: Rotational entropy computed according to Herzberg
Infrared and Raman Spectra, Chapter V,1, Van Nostrand Reinhold, 1945
Point Group:  Dinfh, Symmetry Number:   2
Rotational constants in cm-1:     0.000000     0.010818     0.010818

Vibrational entropy computed according to the QRRHO of S. Grimme
Chem.Eur.J. 2012 18 9955

-------
ENTROPY
-------

The entropy contributions are T*S = T*(S(el)+S(vib)+S(rot)+S(trans))
     S(el)   - electronic entropy
     S(vib)  - vibrational entropy
     S(rot)  - rotational entropy
     S(trans)- translational entropy
The entropies will be listed as mutliplied by the temperature to get
units of energy

Electronic entropy                ...      0.00065446 Eh      0.41 kcal/mol
Vibrational entropy               ...      0.00456469 Eh      2.86 kcal/mol
Rotational entropy                ...      0.00959967 Eh      6.02 kcal/mol
Translational entropy             ...      0.02053447 Eh     12.89 kcal/mol
-----------------------------------------------------------------------
Final entropy term                ...      0.03535329 Eh     22.18 kcal/mol

In case the symmetry of your molecule has not been determined correctly
or in case you have a reason to use a different symmetry number we print
out the resulting rotational entropy values for sn=1,12 :
 --------------------------------------------------------
|  sn= 1 | S(rot)=       0.00025901 Eh      0.16 kcal/mol|
|  sn= 2 | S(rot)=      -0.00039544 Eh     -0.25 kcal/mol|
|  sn= 3 | S(rot)=      -0.00077828 Eh     -0.49 kcal/mol|
|  sn= 4 | S(rot)=      -0.00104990 Eh     -0.66 kcal/mol|
|  sn= 5 | S(rot)=      -0.00126059 Eh     -0.79 kcal/mol|
|  sn= 6 | S(rot)=      -0.00143273 Eh     -0.90 kcal/mol|
|  sn= 7 | S(rot)=      -0.00157828 Eh     -0.99 kcal/mol|
|  sn= 8 | S(rot)=      -0.00170436 Eh     -1.07 kcal/mol|
|  sn= 9 | S(rot)=      -0.00181556 Eh     -1.14 kcal/mol|
|  sn=10 | S(rot)=      -0.00191504 Eh     -1.20 kcal/mol|
|  sn=11 | S(rot)=      -0.00200503 Eh     -1.26 kcal/mol|
|  sn=12 | S(rot)=      -0.00208719 Eh     -1.31 kcal/mol|
 --------------------------------------------------------

-------------------
GIBBS FREE ENERGY
-------------------

The Gibbs free energy is G = H - T*S

Total enthalpy                    ...   -441.12878700 Eh
Total entropy correction          ...     -0.03535329 Eh    -22.18 kcal/mol
-----------------------------------------------------------------------
Final Gibbs free energy         ...   -441.16414029 Eh

For completeness - the Gibbs free energy minus the electronic energy
G-E(el)                           ...     -0.02913885 Eh    -18.28 kcal/mol

                             ****ORCA TERMINATED NORMALLY****
TOTAL RUN TIME: 0 days 0 hours 2 minutes 37 seconds 701 msec
