                         Program Version 4.2.0 -  RELEASE  -
|  1> #
|  2> # Ag03C1_D3H M06-D3/Def2-TZVPPD
|  3> #
|  4> ! m06 d3zero def2-tzvppd def2/jk grid4 nofinalgrid opt xyzfile numfreq
|  5>
|  6> *xyz 1 1
|  7> Ag       0.000000    1.529877    0.000000
|  8> Ag       1.324912   -0.764938    0.000000
|  9> Ag      -1.324912   -0.764938    0.000000
| 10> *
| 11>
| 12> %maxcore 5000
| 13>
| 14> %pal
| 15> nprocs = 24
| 16> end
| 17>
| 18>
| 19>                          ****END OF INPUT****
 Total Charge           Charge          ....    1
 Multiplicity           Mult            ....    1
 Number of Electrons    NEL             ....   56
Dispersion correction           -0.000006740
FINAL SINGLE POINT ENERGY      -440.922255461500
Dispersion correction            ... done
Dispersion correction           -0.000006910
FINAL SINGLE POINT ENERGY      -440.922551571680
Dispersion correction            ... done
Dispersion correction           -0.000008760
FINAL SINGLE POINT ENERGY      -440.923590174787
Dispersion correction            ... done
Dispersion correction           -0.000009288
FINAL SINGLE POINT ENERGY      -440.923388251358
Dispersion correction            ... done
Dispersion correction           -0.000009412
FINAL SINGLE POINT ENERGY      -440.923319023576
Dispersion correction            ... done
                    ***********************HURRAY********************

CARTESIAN COORDINATES (ANGSTROEM)
---------------------------------
  Ag     0.000000    1.595950    0.000000
  Ag     1.380892   -0.797975    0.000000
  Ag    -1.380892   -0.797975    0.000000

 Multiplicity           Mult            ....    1
 Number of Electrons    NEL             ....   56
 Basis Dimension        Dim             ....  168

ORBITAL ENERGIES
----------------

  NO   OCC          E(Eh)            E(eV)
   0   2.0000      -3.917004      -106.5871
   1   2.0000      -3.916709      -106.5791
   2   2.0000      -3.916700      -106.5788
   3   2.0000      -2.526678       -68.7544
   4   2.0000      -2.525829       -68.7313
   5   2.0000      -2.525825       -68.7312
   6   2.0000      -2.524109       -68.6845
   7   2.0000      -2.523296       -68.6624
   8   2.0000      -2.523035       -68.6553
   9   2.0000      -2.523030       -68.6551
  10   2.0000      -2.522968       -68.6534
  11   2.0000      -2.522954       -68.6531
  12   2.0000      -0.575255       -15.6535
  13   2.0000      -0.563674       -15.3383
  14   2.0000      -0.563588       -15.3360
  15   2.0000      -0.558724       -15.2037
  16   2.0000      -0.548694       -14.9307
  17   2.0000      -0.546161       -14.8618
  18   2.0000      -0.546142       -14.8613
  19   2.0000      -0.531125       -14.4526
  20   2.0000      -0.531076       -14.4513
  21   2.0000      -0.528490       -14.3809
  22   2.0000      -0.525748       -14.3063
  23   2.0000      -0.525740       -14.3061
  24   2.0000      -0.524927       -14.2840
  25   2.0000      -0.524861       -14.2822
  26   2.0000      -0.510745       -13.8981
  27   2.0000      -0.429877       -11.6975
  28   0.0000      -0.265428        -7.2227
  29   0.0000      -0.265344        -7.2204
  30   0.0000      -0.199441        -5.4271
  31   0.0000      -0.167235        -4.5507
  32   0.0000      -0.158638        -4.3168

MULLIKEN ATOMIC CHARGES
-----------------------
   0 Ag:    0.333559
   1 Ag:    0.333220
   2 Ag:    0.333221
Sum of atomic charges:    1.0000000

LOEWDIN ATOMIC CHARGES
----------------------
   0 Ag:    0.333534
   1 Ag:    0.333233
   2 Ag:    0.333233

  Mayer bond orders larger than 0.100000
B(  0-Ag,  1-Ag) :   0.5261 B(  0-Ag,  2-Ag) :   0.5261 B(  1-Ag,  2-Ag) :   0.5267

Dispersion correction           -0.000009419
FINAL SINGLE POINT ENERGY      -440.923315301766

DIPOLE MOMENT
-------------
                                X             Y             Z
Electronic contribution:      0.00000       0.00097      -0.00000
Nuclear contribution   :     -0.00000       0.00000       0.00000
                        -----------------------------------------
Total Dipole Moment    :      0.00000       0.00097      -0.00000
                        -----------------------------------------
Magnitude (a.u.)       :      0.00097
Magnitude (Debye)      :      0.00247

VIBRATIONAL FREQUENCIES
-----------------------

Scaling factor for frequencies =  1.000000000 (already applied!)

   0:         0.00 cm**-1
   1:         0.00 cm**-1
   2:         0.00 cm**-1
   3:         0.00 cm**-1
   4:         0.00 cm**-1
   5:         0.00 cm**-1
   6:       108.51 cm**-1
   7:       111.49 cm**-1
   8:       163.21 cm**-1

IR SPECTRUM
-----------

 Mode    freq (cm**-1)   T**2         TX         TY         TZ
-------------------------------------------------------------------
   6:       108.51    1.445652  ( -1.202353  -0.000014  -0.000034)
   7:       111.49    1.646870  (  0.000040   1.283304   0.000014)
   8:       163.21    0.001490  ( -0.000071   0.038607   0.000001)

--------------------------
THERMOCHEMISTRY AT 298.15K
--------------------------

Temperature         ... 298.15 K
Pressure            ... 1.00 atm
Total Mass          ... 323.61 AMU

Throughout the following assumptions are being made:
  (1) The electronic state is orbitally nondegenerate
  (2) There are no thermally accessible electronically excited states
  (3) Hindered rotations indicated by low frequency modes are not
      treated as such but are treated as vibrations and this may
      cause some error
  (4) All equations used are the standard statistical mechanics
      equations for an ideal gas
  (5) All vibrations are strictly harmonic

freq.     108.51  E(vib)   ...       0.45
freq.     111.49  E(vib)   ...       0.45
freq.     163.21  E(vib)   ...       0.39

------------
INNER ENERGY
------------

The inner energy is: U= E(el) + E(ZPE) + E(vib) + E(rot) + E(trans)
    E(el)   - is the total energy from the electronic structure calculation
              = E(kin-el) + E(nuc-el) + E(el-el) + E(nuc-nuc)
    E(ZPE)  - the the zero temperature vibrational energy from the frequency calculation
    E(vib)  - the the finite temperature correction to E(ZPE) due to population
              of excited vibrational states
    E(rot)  - is the rotational thermal energy
    E(trans)- is the translational thermal energy

Summary of contributions to the inner energy U:
Electronic energy                ...   -440.92331530 Eh
Zero point energy                ...      0.00087302 Eh       0.55 kcal/mol
Thermal vibrational correction   ...      0.00205206 Eh       1.29 kcal/mol
Thermal rotational correction    ...      0.00141627 Eh       0.89 kcal/mol
Thermal translational correction ...      0.00141627 Eh       0.89 kcal/mol
-----------------------------------------------------------------------
Total thermal energy                   -440.91755768 Eh

Summary of corrections to the electronic energy:
(perhaps to be used in another calculation)
Total thermal correction                  0.00488460 Eh       3.07 kcal/mol
Non-thermal (ZPE) correction              0.00087302 Eh       0.55 kcal/mol
-----------------------------------------------------------------------
Total correction                          0.00575762 Eh       3.61 kcal/mol

--------
ENTHALPY
--------

The enthalpy is H = U + kB*T
                kB is Boltzmann's constant
Total free energy                 ...   -440.91755768 Eh
Thermal Enthalpy correction       ...      0.00094421 Eh       0.59 kcal/mol
-----------------------------------------------------------------------
Total Enthalpy                    ...   -440.91661347 Eh

Note: Rotational entropy computed according to Herzberg
Infrared and Raman Spectra, Chapter V,1, Van Nostrand Reinhold, 1945
Point Group:  C2v, Symmetry Number:   2
Rotational constants in cm-1:     0.040978     0.040904     0.020470

Vibrational entropy computed according to the QRRHO of S. Grimme
Chem.Eur.J. 2012 18 9955

-------
ENTROPY
-------

The entropy contributions are T*S = T*(S(el)+S(vib)+S(rot)+S(trans))
     S(el)   - electronic entropy
     S(vib)  - vibrational entropy
     S(rot)  - rotational entropy
     S(trans)- translational entropy
The entropies will be listed as mutliplied by the temperature to get
units of energy

Electronic entropy                ...      0.00000000 Eh      0.00 kcal/mol
Vibrational entropy               ...      0.00409542 Eh      2.57 kcal/mol
Rotational entropy                ...      0.01370946 Eh      8.60 kcal/mol
Translational entropy             ...      0.02053447 Eh     12.89 kcal/mol
-----------------------------------------------------------------------
Final entropy term                ...      0.03833935 Eh     24.06 kcal/mol

In case the symmetry of your molecule has not been determined correctly
or in case you have a reason to use a different symmetry number we print
out the resulting rotational entropy values for sn=1,12 :
 --------------------------------------------------------
|  sn= 1 | S(rot)=       0.01436391 Eh      9.01 kcal/mol|
|  sn= 2 | S(rot)=       0.01370946 Eh      8.60 kcal/mol|
|  sn= 3 | S(rot)=       0.01332663 Eh      8.36 kcal/mol|
|  sn= 4 | S(rot)=       0.01305500 Eh      8.19 kcal/mol|
|  sn= 5 | S(rot)=       0.01284431 Eh      8.06 kcal/mol|
|  sn= 6 | S(rot)=       0.01267217 Eh      7.95 kcal/mol|
|  sn= 7 | S(rot)=       0.01252662 Eh      7.86 kcal/mol|
|  sn= 8 | S(rot)=       0.01240055 Eh      7.78 kcal/mol|
|  sn= 9 | S(rot)=       0.01228934 Eh      7.71 kcal/mol|
|  sn=10 | S(rot)=       0.01218986 Eh      7.65 kcal/mol|
|  sn=11 | S(rot)=       0.01209987 Eh      7.59 kcal/mol|
|  sn=12 | S(rot)=       0.01201771 Eh      7.54 kcal/mol|
 --------------------------------------------------------

-------------------
GIBBS FREE ENERGY
-------------------

The Gibbs free energy is G = H - T*S

Total enthalpy                    ...   -440.91661347 Eh
Total entropy correction          ...     -0.03833935 Eh    -24.06 kcal/mol
-----------------------------------------------------------------------
Final Gibbs free energy         ...   -440.95495282 Eh

For completeness - the Gibbs free energy minus the electronic energy
G-E(el)                           ...     -0.03163752 Eh    -19.85 kcal/mol

                             ****ORCA TERMINATED NORMALLY****
TOTAL RUN TIME: 0 days 0 hours 2 minutes 46 seconds 464 msec
