                         Program Version 4.2.0 -  RELEASE  -
|  1> #
|  2> # Au01N0_H M06-D3/Def2-TZVPPD
|  3> #
|  4> ! m06 d3zero def2-tzvppd def2/jk grid4 nofinalgrid opt xyzfile numfreq
|  5>
|  6> *xyz 0 1
|  7> Au       0.000000    0.000000    0.019034
|  8> H        0.000000    0.000000   -1.503691
|  9> *
| 10>
| 11> %maxcore 5000
| 12>
| 13> %pal
| 14> nprocs = 24
| 15> end
| 16>
| 17>
| 18>                          ****END OF INPUT****
 Total Charge           Charge          ....    0
 Multiplicity           Mult            ....    1
 Number of Electrons    NEL             ....   20
Dispersion correction           -0.000000053
FINAL SINGLE POINT ENERGY      -136.347776095111
Dispersion correction            ... done
Dispersion correction           -0.000000060
FINAL SINGLE POINT ENERGY      -136.348178139699
Dispersion correction            ... done
Dispersion correction           -0.000000056
FINAL SINGLE POINT ENERGY      -136.348046973707
Dispersion correction            ... done
Dispersion correction           -0.000000056
FINAL SINGLE POINT ENERGY      -136.348041033730
Dispersion correction            ... done
                    ***********************HURRAY********************

CARTESIAN COORDINATES (ANGSTROEM)
---------------------------------
  Au     0.000000    0.000000    0.025585
  H      0.000000    0.000000   -1.510242

 Multiplicity           Mult            ....    1
 Number of Electrons    NEL             ....   20
 Basis Dimension        Dim             ....   76

ORBITAL ENERGIES
----------------

  NO   OCC          E(Eh)            E(eV)
   0   2.0000      -4.157273      -113.1252
   1   2.0000      -2.352540       -64.0159
   2   2.0000      -2.336896       -63.5902
   3   2.0000      -2.336896       -63.5902
   4   2.0000      -0.433655       -11.8004
   5   2.0000      -0.339040        -9.2257
   6   2.0000      -0.339040        -9.2257
   7   2.0000      -0.322487        -8.7753
   8   2.0000      -0.322482        -8.7752
   9   2.0000      -0.272356        -7.4112
  10   0.0000      -0.086540        -2.3549
  11   0.0000      -0.013048        -0.3551
  12   0.0000      -0.013048        -0.3551
  13   0.0000       0.042927         1.1681
  14   0.0000       0.060801         1.6545

MULLIKEN ATOMIC CHARGES
-----------------------
   0 Au:    0.011548
   1 H :   -0.011548
Sum of atomic charges:   -0.0000000

LOEWDIN ATOMIC CHARGES
----------------------
   0 Au:    0.350952
   1 H :   -0.350952

  Mayer bond orders larger than 0.100000
B(  0-Au,  1-H ) :   1.1744

Dispersion correction           -0.000000056
FINAL SINGLE POINT ENERGY      -136.348041187519

DIPOLE MOMENT
-------------
                                X             Y             Z
Electronic contribution:      0.00000      -0.00000       3.16941
Nuclear contribution   :      0.00000       0.00000      -2.60675
                        -----------------------------------------
Total Dipole Moment    :      0.00000      -0.00000       0.56266
                        -----------------------------------------
Magnitude (a.u.)       :      0.56266
Magnitude (Debye)      :      1.43017

VIBRATIONAL FREQUENCIES
-----------------------

Scaling factor for frequencies =  1.000000000 (already applied!)

   0:         0.00 cm**-1
   1:         0.00 cm**-1
   2:         0.00 cm**-1
   3:         0.00 cm**-1
   4:         0.00 cm**-1
   5:      2240.25 cm**-1

IR SPECTRUM
-----------

 Mode    freq (cm**-1)   T**2         TX         TY         TZ
-------------------------------------------------------------------
   5:      2240.25   22.758012  ( -0.000116   0.000039   4.770536)

--------------------------
THERMOCHEMISTRY AT 298.15K
--------------------------

Temperature         ... 298.15 K
Pressure            ... 1.00 atm
Total Mass          ... 197.97 AMU
The molecule is recognized as being linear

Throughout the following assumptions are being made:
  (1) The electronic state is orbitally nondegenerate
  (2) There are no thermally accessible electronically excited states
  (3) Hindered rotations indicated by low frequency modes are not
      treated as such but are treated as vibrations and this may
      cause some error
  (4) All equations used are the standard statistical mechanics
      equations for an ideal gas
  (5) All vibrations are strictly harmonic

freq.    2240.25  E(vib)   ...       0.00

------------
INNER ENERGY
------------

The inner energy is: U= E(el) + E(ZPE) + E(vib) + E(rot) + E(trans)
    E(el)   - is the total energy from the electronic structure calculation
              = E(kin-el) + E(nuc-el) + E(el-el) + E(nuc-nuc)
    E(ZPE)  - the the zero temperature vibrational energy from the frequency calculation
    E(vib)  - the the finite temperature correction to E(ZPE) due to population
              of excited vibrational states
    E(rot)  - is the rotational thermal energy
    E(trans)- is the translational thermal energy

Summary of contributions to the inner energy U:
Electronic energy                ...   -136.34804119 Eh
Zero point energy                ...      0.00510367 Eh       3.20 kcal/mol
Thermal vibrational correction   ...      0.00000021 Eh       0.00 kcal/mol
Thermal rotational correction    ...      0.00094418 Eh       0.59 kcal/mol
Thermal translational correction ...      0.00141627 Eh       0.89 kcal/mol
-----------------------------------------------------------------------
Total thermal energy                   -136.34057686 Eh

Summary of corrections to the electronic energy:
(perhaps to be used in another calculation)
Total thermal correction                  0.00236066 Eh       1.48 kcal/mol
Non-thermal (ZPE) correction              0.00510367 Eh       3.20 kcal/mol
-----------------------------------------------------------------------
Total correction                          0.00746433 Eh       4.68 kcal/mol

--------
ENTHALPY
--------

The enthalpy is H = U + kB*T
                kB is Boltzmann's constant
Total free energy                 ...   -136.34057686 Eh
Thermal Enthalpy correction       ...      0.00094421 Eh       0.59 kcal/mol
-----------------------------------------------------------------------
Total Enthalpy                    ...   -136.33963265 Eh

Note: Rotational entropy computed according to Herzberg
Infrared and Raman Spectra, Chapter V,1, Van Nostrand Reinhold, 1945
Point Group:  Cinfv, Symmetry Number:   1
Rotational constants in cm-1:     0.000000     7.126376     7.126376

Vibrational entropy computed according to the QRRHO of S. Grimme
Chem.Eur.J. 2012 18 9955

-------
ENTROPY
-------

The entropy contributions are T*S = T*(S(el)+S(vib)+S(rot)+S(trans))
     S(el)   - electronic entropy
     S(vib)  - vibrational entropy
     S(rot)  - rotational entropy
     S(trans)- translational entropy
The entropies will be listed as mutliplied by the temperature to get
units of energy

Electronic entropy                ...      0.00000000 Eh      0.00 kcal/mol
Vibrational entropy               ...      0.00000022 Eh      0.00 kcal/mol
Rotational entropy                ...      0.00412608 Eh      2.59 kcal/mol
Translational entropy             ...      0.01983851 Eh     12.45 kcal/mol
-----------------------------------------------------------------------
Final entropy term                ...      0.02396481 Eh     15.04 kcal/mol

In case the symmetry of your molecule has not been determined correctly
or in case you have a reason to use a different symmetry number we print
out the resulting rotational entropy values for sn=1,12 :
 --------------------------------------------------------
|  sn= 1 | S(rot)=             -inf Eh      -inf kcal/mol|
|  sn= 2 | S(rot)=             -inf Eh      -inf kcal/mol|
|  sn= 3 | S(rot)=             -inf Eh      -inf kcal/mol|
|  sn= 4 | S(rot)=             -inf Eh      -inf kcal/mol|
|  sn= 5 | S(rot)=             -inf Eh      -inf kcal/mol|
|  sn= 6 | S(rot)=             -inf Eh      -inf kcal/mol|
|  sn= 7 | S(rot)=             -inf Eh      -inf kcal/mol|
|  sn= 8 | S(rot)=             -inf Eh      -inf kcal/mol|
|  sn= 9 | S(rot)=             -inf Eh      -inf kcal/mol|
|  sn=10 | S(rot)=             -inf Eh      -inf kcal/mol|
|  sn=11 | S(rot)=             -inf Eh      -inf kcal/mol|
|  sn=12 | S(rot)=             -inf Eh      -inf kcal/mol|
 --------------------------------------------------------

-------------------
GIBBS FREE ENERGY
-------------------

The Gibbs free energy is G = H - T*S

Total enthalpy                    ...   -136.33963265 Eh
Total entropy correction          ...     -0.02396481 Eh    -15.04 kcal/mol
-----------------------------------------------------------------------
Final Gibbs free energy         ...   -136.36359747 Eh

For completeness - the Gibbs free energy minus the electronic energy
G-E(el)                           ...     -0.01555628 Eh     -9.76 kcal/mol

                             ****ORCA TERMINATED NORMALLY****
TOTAL RUN TIME: 0 days 0 hours 0 minutes 35 seconds 351 msec
