                         Program Version 4.2.0 -  RELEASE  -
|  1> #
|  2> # Au01N0_F M06-D3/Def2-TZVPPD
|  3> #
|  4> ! m06 d3zero def2-tzvppd def2/jk grid4 nofinalgrid opt xyzfile numfreq
|  5>
|  6> *xyz 0 1
|  7> Au       0.000000    0.000000    0.196853
|  8> F        0.000000    0.000000   -1.727931
|  9> *
| 10>
| 11> %maxcore 5000
| 12>
| 13> %pal
| 14> nprocs = 24
| 15> end
| 16>
| 17>
| 18>                          ****END OF INPUT****
 Total Charge           Charge          ....    0
 Multiplicity           Mult            ....    1
 Number of Electrons    NEL             ....   28
Dispersion correction           -0.000000394
FINAL SINGLE POINT ENERGY      -235.582634825962
Dispersion correction            ... done
Dispersion correction           -0.000000472
FINAL SINGLE POINT ENERGY      -235.583075397769
Dispersion correction            ... done
Dispersion correction           -0.000000436
FINAL SINGLE POINT ENERGY      -235.583039344363
Dispersion correction            ... done
Dispersion correction           -0.000000433
FINAL SINGLE POINT ENERGY      -235.583027291876
Dispersion correction            ... done
                    ***********************HURRAY********************

CARTESIAN COORDINATES (ANGSTROEM)
---------------------------------
  Au     0.000000    0.000000    0.208308
  F      0.000000    0.000000   -1.739386

 Multiplicity           Mult            ....    1
 Number of Electrons    NEL             ....   28
 Basis Dimension        Dim             ....   99

ORBITAL ENERGIES
----------------

  NO   OCC          E(Eh)            E(eV)
   0   2.0000     -24.707551      -672.3267
   1   2.0000      -4.180294      -113.7516
   2   2.0000      -2.370681       -64.5095
   3   2.0000      -2.362993       -64.3003
   4   2.0000      -2.362993       -64.3003
   5   2.0000      -1.123863       -30.5819
   6   2.0000      -0.451853       -12.2955
   7   2.0000      -0.407314       -11.0836
   8   2.0000      -0.407314       -11.0836
   9   2.0000      -0.350646        -9.5416
  10   2.0000      -0.350641        -9.5414
  11   2.0000      -0.319611        -8.6971
  12   2.0000      -0.319611        -8.6971
  13   2.0000      -0.309507        -8.4221
  14   0.0000      -0.146120        -3.9761
  15   0.0000      -0.015608        -0.4247
  16   0.0000      -0.015608        -0.4247
  17   0.0000       0.002651         0.0721
  18   0.0000       0.046356         1.2614

MULLIKEN ATOMIC CHARGES
-----------------------
   0 Au:    0.498228
   1 F :   -0.498228
Sum of atomic charges:   -0.0000000

LOEWDIN ATOMIC CHARGES
----------------------
   0 Au:    0.624002
   1 F :   -0.624002

  Mayer bond orders larger than 0.100000
B(  0-Au,  1-F ) :   0.8194

Dispersion correction           -0.000000433
FINAL SINGLE POINT ENERGY      -235.583027961269

DIPOLE MOMENT
-------------
                                X             Y             Z
Electronic contribution:      0.00000      -0.00000      25.79153
Nuclear contribution   :      0.00000       0.00000     -24.05973
                        -----------------------------------------
Total Dipole Moment    :      0.00000      -0.00000       1.73180
                        -----------------------------------------
Magnitude (a.u.)       :      1.73180
Magnitude (Debye)      :      4.40188

VIBRATIONAL FREQUENCIES
-----------------------

Scaling factor for frequencies =  1.000000000 (already applied!)

   0:         0.00 cm**-1
   1:         0.00 cm**-1
   2:         0.00 cm**-1
   3:         0.00 cm**-1
   4:         0.00 cm**-1
   5:       539.09 cm**-1

IR SPECTRUM
-----------

 Mode    freq (cm**-1)   T**2         TX         TY         TZ
-------------------------------------------------------------------
   5:       539.09   46.067670  (  0.000016  -0.000037   6.787317)

--------------------------
THERMOCHEMISTRY AT 298.15K
--------------------------

Temperature         ... 298.15 K
Pressure            ... 1.00 atm
Total Mass          ... 215.96 AMU
The molecule is recognized as being linear

Throughout the following assumptions are being made:
  (1) The electronic state is orbitally nondegenerate
  (2) There are no thermally accessible electronically excited states
  (3) Hindered rotations indicated by low frequency modes are not
      treated as such but are treated as vibrations and this may
      cause some error
  (4) All equations used are the standard statistical mechanics
      equations for an ideal gas
  (5) All vibrations are strictly harmonic

freq.     539.09  E(vib)   ...       0.12

------------
INNER ENERGY
------------

The inner energy is: U= E(el) + E(ZPE) + E(vib) + E(rot) + E(trans)
    E(el)   - is the total energy from the electronic structure calculation
              = E(kin-el) + E(nuc-el) + E(el-el) + E(nuc-nuc)
    E(ZPE)  - the the zero temperature vibrational energy from the frequency calculation
    E(vib)  - the the finite temperature correction to E(ZPE) due to population
              of excited vibrational states
    E(rot)  - is the rotational thermal energy
    E(trans)- is the translational thermal energy

Summary of contributions to the inner energy U:
Electronic energy                ...   -235.58302796 Eh
Zero point energy                ...      0.00122813 Eh       0.77 kcal/mol
Thermal vibrational correction   ...      0.00019678 Eh       0.12 kcal/mol
Thermal rotational correction    ...      0.00094418 Eh       0.59 kcal/mol
Thermal translational correction ...      0.00141627 Eh       0.89 kcal/mol
-----------------------------------------------------------------------
Total thermal energy                   -235.57924261 Eh

Summary of corrections to the electronic energy:
(perhaps to be used in another calculation)
Total thermal correction                  0.00255723 Eh       1.60 kcal/mol
Non-thermal (ZPE) correction              0.00122813 Eh       0.77 kcal/mol
-----------------------------------------------------------------------
Total correction                          0.00378536 Eh       2.38 kcal/mol

--------
ENTHALPY
--------

The enthalpy is H = U + kB*T
                kB is Boltzmann's constant
Total free energy                 ...   -235.57924261 Eh
Thermal Enthalpy correction       ...      0.00094421 Eh       0.59 kcal/mol
-----------------------------------------------------------------------
Total Enthalpy                    ...   -235.57829840 Eh

Note: Rotational entropy computed according to Herzberg
Infrared and Raman Spectra, Chapter V,1, Van Nostrand Reinhold, 1945
Point Group:  Cinfv, Symmetry Number:   1
Rotational constants in cm-1:     0.000000     0.256471     0.256471

Vibrational entropy computed according to the QRRHO of S. Grimme
Chem.Eur.J. 2012 18 9955

-------
ENTROPY
-------

The entropy contributions are T*S = T*(S(el)+S(vib)+S(rot)+S(trans))
     S(el)   - electronic entropy
     S(vib)  - vibrational entropy
     S(rot)  - rotational entropy
     S(trans)- translational entropy
The entropies will be listed as mutliplied by the temperature to get
units of energy

Electronic entropy                ...      0.00000000 Eh      0.00 kcal/mol
Vibrational entropy               ...      0.00026988 Eh      0.17 kcal/mol
Rotational entropy                ...      0.00726505 Eh      4.56 kcal/mol
Translational entropy             ...      0.01996169 Eh     12.53 kcal/mol
-----------------------------------------------------------------------
Final entropy term                ...      0.02749662 Eh     17.25 kcal/mol

In case the symmetry of your molecule has not been determined correctly
or in case you have a reason to use a different symmetry number we print
out the resulting rotational entropy values for sn=1,12 :
 --------------------------------------------------------
|  sn= 1 | S(rot)=             -inf Eh      -inf kcal/mol|
|  sn= 2 | S(rot)=             -inf Eh      -inf kcal/mol|
|  sn= 3 | S(rot)=             -inf Eh      -inf kcal/mol|
|  sn= 4 | S(rot)=             -inf Eh      -inf kcal/mol|
|  sn= 5 | S(rot)=             -inf Eh      -inf kcal/mol|
|  sn= 6 | S(rot)=             -inf Eh      -inf kcal/mol|
|  sn= 7 | S(rot)=             -inf Eh      -inf kcal/mol|
|  sn= 8 | S(rot)=             -inf Eh      -inf kcal/mol|
|  sn= 9 | S(rot)=             -inf Eh      -inf kcal/mol|
|  sn=10 | S(rot)=             -inf Eh      -inf kcal/mol|
|  sn=11 | S(rot)=             -inf Eh      -inf kcal/mol|
|  sn=12 | S(rot)=             -inf Eh      -inf kcal/mol|
 --------------------------------------------------------

-------------------
GIBBS FREE ENERGY
-------------------

The Gibbs free energy is G = H - T*S

Total enthalpy                    ...   -235.57829840 Eh
Total entropy correction          ...     -0.02749662 Eh    -17.25 kcal/mol
-----------------------------------------------------------------------
Final Gibbs free energy         ...   -235.60579502 Eh

For completeness - the Gibbs free energy minus the electronic energy
G-E(el)                           ...     -0.02276705 Eh    -14.29 kcal/mol

                             ****ORCA TERMINATED NORMALLY****
TOTAL RUN TIME: 0 days 0 hours 0 minutes 55 seconds 798 msec
