                         Program Version 4.2.0 -  RELEASE  -
|  1> #
|  2> # Au02N0 M06-D3/Def2-TZVPPD
|  3> #
|  4> ! m06 d3zero def2-tzvppd def2/jk grid4 nofinalgrid opt xyzfile numfreq
|  5>
|  6> *xyz 0 1
|  7> Au       0.000000    0.000000    1.239541
|  8> Au       0.000000    0.000000   -1.239541
|  9> *
| 10>
| 11> %maxcore 5000
| 12>
| 13> %pal
| 14> nprocs = 24
| 15> end
| 16>
| 17>
| 18>                          ****END OF INPUT****
 Total Charge           Charge          ....    0
 Multiplicity           Mult            ....    1
 Number of Electrons    NEL             ....   38
Dispersion correction           -0.000002140
FINAL SINGLE POINT ENERGY      -271.560041430020
Dispersion correction            ... done
Dispersion correction           -0.000003520
FINAL SINGLE POINT ENERGY      -271.561174993184
Dispersion correction            ... done
Dispersion correction           -0.000002648
FINAL SINGLE POINT ENERGY      -271.561687627973
Dispersion correction            ... done
Dispersion correction           -0.000002476
FINAL SINGLE POINT ENERGY      -271.561383883413
Dispersion correction            ... done
Dispersion correction           -0.000002515
FINAL SINGLE POINT ENERGY      -271.561472777314
Dispersion correction            ... done
                    ***********************HURRAY********************

CARTESIAN COORDINATES (ANGSTROEM)
---------------------------------
  Au     0.000000    0.000000    1.264700
  Au     0.000000    0.000000   -1.264700

 Multiplicity           Mult            ....    1
 Number of Electrons    NEL             ....   38
 Basis Dimension        Dim             ....  118

ORBITAL ENERGIES
----------------

  NO   OCC          E(Eh)            E(eV)
   0   2.0000      -4.135459      -112.5316
   1   2.0000      -4.134910      -112.5166
   2   2.0000      -2.329916       -63.4002
   3   2.0000      -2.319610       -63.1198
   4   2.0000      -2.319212       -63.1090
   5   2.0000      -2.319212       -63.1090
   6   2.0000      -2.318317       -63.0846
   7   2.0000      -2.318317       -63.0846
   8   2.0000      -0.376654       -10.2493
   9   2.0000      -0.348047        -9.4708
  10   2.0000      -0.348047        -9.4708
  11   2.0000      -0.316731        -8.6187
  12   2.0000      -0.316701        -8.6179
  13   2.0000      -0.304872        -8.2960
  14   2.0000      -0.304842        -8.2952
  15   2.0000      -0.291423        -7.9300
  16   2.0000      -0.291423        -7.9300
  17   2.0000      -0.286439        -7.7944
  18   2.0000      -0.262079        -7.1315
  19   0.0000      -0.124060        -3.3759
  20   0.0000      -0.024646        -0.6707
  21   0.0000      -0.024646        -0.6707
  22   0.0000      -0.007872        -0.2142
  23   0.0000       0.031722         0.8632

MULLIKEN ATOMIC CHARGES
-----------------------
   0 Au:    0.000000
   1 Au:   -0.000000
Sum of atomic charges:   -0.0000000

LOEWDIN ATOMIC CHARGES
----------------------
   0 Au:    0.000000
   1 Au:   -0.000000

  Mayer bond orders larger than 0.100000
B(  0-Au,  1-Au) :   1.1361

Dispersion correction           -0.000002514
FINAL SINGLE POINT ENERGY      -271.561469376046

DIPOLE MOMENT
-------------
                                X             Y             Z
Electronic contribution:      0.00000      -0.00000       0.00000
Nuclear contribution   :      0.00000       0.00000       0.00000
                        -----------------------------------------
Total Dipole Moment    :      0.00000      -0.00000       0.00000
                        -----------------------------------------
Magnitude (a.u.)       :      0.00000
Magnitude (Debye)      :      0.00000

VIBRATIONAL FREQUENCIES
-----------------------

Scaling factor for frequencies =  1.000000000 (already applied!)

   0:         0.00 cm**-1
   1:         0.00 cm**-1
   2:         0.00 cm**-1
   3:         0.00 cm**-1
   4:         0.00 cm**-1
   5:       176.74 cm**-1

IR SPECTRUM
-----------

 Mode    freq (cm**-1)   T**2         TX         TY         TZ
-------------------------------------------------------------------
   5:       176.74    0.000000  (  0.000028  -0.000028   0.000036)

--------------------------
THERMOCHEMISTRY AT 298.15K
--------------------------

Temperature         ... 298.15 K
Pressure            ... 1.00 atm
Total Mass          ... 393.93 AMU
The molecule is recognized as being linear

Throughout the following assumptions are being made:
  (1) The electronic state is orbitally nondegenerate
  (2) There are no thermally accessible electronically excited states
  (3) Hindered rotations indicated by low frequency modes are not
      treated as such but are treated as vibrations and this may
      cause some error
  (4) All equations used are the standard statistical mechanics
      equations for an ideal gas
  (5) All vibrations are strictly harmonic

freq.     176.74  E(vib)   ...       0.38

------------
INNER ENERGY
------------

The inner energy is: U= E(el) + E(ZPE) + E(vib) + E(rot) + E(trans)
    E(el)   - is the total energy from the electronic structure calculation
              = E(kin-el) + E(nuc-el) + E(el-el) + E(nuc-nuc)
    E(ZPE)  - the the zero temperature vibrational energy from the frequency calculation
    E(vib)  - the the finite temperature correction to E(ZPE) due to population
              of excited vibrational states
    E(rot)  - is the rotational thermal energy
    E(trans)- is the translational thermal energy

Summary of contributions to the inner energy U:
Electronic energy                ...   -271.56146938 Eh
Zero point energy                ...      0.00040264 Eh       0.25 kcal/mol
Thermal vibrational correction   ...      0.00059812 Eh       0.38 kcal/mol
Thermal rotational correction    ...      0.00094418 Eh       0.59 kcal/mol
Thermal translational correction ...      0.00141627 Eh       0.89 kcal/mol
-----------------------------------------------------------------------
Total thermal energy                   -271.55810816 Eh

Summary of corrections to the electronic energy:
(perhaps to be used in another calculation)
Total thermal correction                  0.00295857 Eh       1.86 kcal/mol
Non-thermal (ZPE) correction              0.00040264 Eh       0.25 kcal/mol
-----------------------------------------------------------------------
Total correction                          0.00336121 Eh       2.11 kcal/mol

--------
ENTHALPY
--------

The enthalpy is H = U + kB*T
                kB is Boltzmann's constant
Total free energy                 ...   -271.55810816 Eh
Thermal Enthalpy correction       ...      0.00094421 Eh       0.59 kcal/mol
-----------------------------------------------------------------------
Total Enthalpy                    ...   -271.55716395 Eh

Note: Rotational entropy computed according to Herzberg
Infrared and Raman Spectra, Chapter V,1, Van Nostrand Reinhold, 1945
Point Group:  Dinfh, Symmetry Number:   2
Rotational constants in cm-1:     0.000000     0.026755     0.026755

Vibrational entropy computed according to the QRRHO of S. Grimme
Chem.Eur.J. 2012 18 9955

-------
ENTROPY
-------

The entropy contributions are T*S = T*(S(el)+S(vib)+S(rot)+S(trans))
     S(el)   - electronic entropy
     S(vib)  - vibrational entropy
     S(rot)  - rotational entropy
     S(trans)- translational entropy
The entropies will be listed as mutliplied by the temperature to get
units of energy

Electronic entropy                ...      0.00000000 Eh      0.00 kcal/mol
Vibrational entropy               ...      0.00111932 Eh      0.70 kcal/mol
Rotational entropy                ...      0.00874473 Eh      5.49 kcal/mol
Translational entropy             ...      0.02081297 Eh     13.06 kcal/mol
-----------------------------------------------------------------------
Final entropy term                ...      0.03067701 Eh     19.25 kcal/mol

In case the symmetry of your molecule has not been determined correctly
or in case you have a reason to use a different symmetry number we print
out the resulting rotational entropy values for sn=1,12 :
 --------------------------------------------------------
|  sn= 1 | S(rot)=             -inf Eh      -inf kcal/mol|
|  sn= 2 | S(rot)=             -inf Eh      -inf kcal/mol|
|  sn= 3 | S(rot)=             -inf Eh      -inf kcal/mol|
|  sn= 4 | S(rot)=             -inf Eh      -inf kcal/mol|
|  sn= 5 | S(rot)=             -inf Eh      -inf kcal/mol|
|  sn= 6 | S(rot)=             -inf Eh      -inf kcal/mol|
|  sn= 7 | S(rot)=             -inf Eh      -inf kcal/mol|
|  sn= 8 | S(rot)=             -inf Eh      -inf kcal/mol|
|  sn= 9 | S(rot)=             -inf Eh      -inf kcal/mol|
|  sn=10 | S(rot)=             -inf Eh      -inf kcal/mol|
|  sn=11 | S(rot)=             -inf Eh      -inf kcal/mol|
|  sn=12 | S(rot)=             -inf Eh      -inf kcal/mol|
 --------------------------------------------------------

-------------------
GIBBS FREE ENERGY
-------------------

The Gibbs free energy is G = H - T*S

Total enthalpy                    ...   -271.55716395 Eh
Total entropy correction          ...     -0.03067701 Eh    -19.25 kcal/mol
-----------------------------------------------------------------------
Final Gibbs free energy         ...   -271.58784097 Eh

For completeness - the Gibbs free energy minus the electronic energy
G-E(el)                           ...     -0.02637159 Eh    -16.55 kcal/mol

                             ****ORCA TERMINATED NORMALLY****
TOTAL RUN TIME: 0 days 0 hours 1 minutes 30 seconds 443 msec
