                         Program Version 4.2.0 -  RELEASE  -
|  1> #
|  2> # Au03N0_LIN M06-D3/Def2-TZVPPD
|  3> #
|  4> ! m06 d3zero def2-tzvppd def2/jk grid4 nofinalgrid opt xyzfile numfreq
|  5>
|  6> *xyz 0 2
|  7> Au       0.000000    0.000000    0.000000
|  8> Au       0.000000    0.000000    2.547414
|  9> Au       0.000000    0.000000   -2.547414
| 10> *
| 11>
| 12> %maxcore 5000
| 13>
| 14> %pal
| 15> nprocs = 24
| 16> end
| 17>
| 18>
| 19>                          ****END OF INPUT****
 Total Charge           Charge          ....    0
 Multiplicity           Mult            ....    2
 Number of Electrons    NEL             ....   57
Dispersion correction           -0.000256933
FINAL SINGLE POINT ENERGY      -407.338110446464
Dispersion correction            ... done
Dispersion correction           -0.000241070
FINAL SINGLE POINT ENERGY      -407.340550760266
Dispersion correction            ... done
Dispersion correction           -0.000250290
FINAL SINGLE POINT ENERGY      -407.340392469545
Dispersion correction            ... done
Dispersion correction           -0.000251620
FINAL SINGLE POINT ENERGY      -407.340204779050
Dispersion correction            ... done
Dispersion correction           -0.000251469
FINAL SINGLE POINT ENERGY      -407.340229511189
Dispersion correction            ... done
                    ***********************HURRAY********************

CARTESIAN COORDINATES (ANGSTROEM)
---------------------------------
  Au     0.000000    0.000000   -0.000003
  Au    -0.000000   -0.000000    2.599921
  Au    -0.000000   -0.000000   -2.599919

 Multiplicity           Mult            ....    2
 Number of Electrons    NEL             ....   57
 Basis Dimension        Dim             ....  177

ORBITAL ENERGIES
----------------
                 SPIN UP ORBITALS
  NO   OCC          E(Eh)            E(eV)
   0   1.0000      -4.145940      -112.8168
   1   1.0000      -4.145935      -112.8166
   2   1.0000      -4.134123      -112.4952
   3   1.0000      -2.336906       -63.5905
   4   1.0000      -2.334537       -63.5260
   5   1.0000      -2.330505       -63.4163
   6   1.0000      -2.330505       -63.4163
   7   1.0000      -2.330493       -63.4159
   8   1.0000      -2.330493       -63.4159
   9   1.0000      -2.321685       -63.1763
  10   1.0000      -2.317041       -63.0499
  11   1.0000      -2.317041       -63.0499
  12   1.0000      -0.399100       -10.8601
  13   1.0000      -0.359496        -9.7824
  14   1.0000      -0.359496        -9.7824
  15   1.0000      -0.336216        -9.1489
  16   1.0000      -0.332255        -9.0411
  17   1.0000      -0.332255        -9.0411
  18   1.0000      -0.326869        -8.8946
  19   1.0000      -0.326843        -8.8938
  20   1.0000      -0.324321        -8.8252
  21   1.0000      -0.324296        -8.8245
  22   1.0000      -0.304629        -8.2894
  23   1.0000      -0.304593        -8.2884
  24   1.0000      -0.288044        -7.8381
  25   1.0000      -0.287184        -7.8147
  26   1.0000      -0.287184        -7.8147
  27   1.0000      -0.275239        -7.4896
  28   1.0000      -0.244867        -6.6632
  29   0.0000      -0.103011        -2.8031
  30   0.0000      -0.037858        -1.0302
  31   0.0000      -0.037858        -1.0302
  32   0.0000      -0.022344        -0.6080
  33   0.0000      -0.002538        -0.0691

                 SPIN DOWN ORBITALS
  NO   OCC          E(Eh)            E(eV)
   0   1.0000      -4.143622      -112.7537
   1   1.0000      -4.143615      -112.7535
   2   1.0000      -4.134674      -112.5102
   3   1.0000      -2.335823       -63.5610
   4   1.0000      -2.332843       -63.4799
   5   1.0000      -2.326899       -63.3181
   6   1.0000      -2.326899       -63.3181
   7   1.0000      -2.326863       -63.3172
   8   1.0000      -2.326863       -63.3172
   9   1.0000      -2.322212       -63.1906
  10   1.0000      -2.317411       -63.0599
  11   1.0000      -2.317411       -63.0599
  12   1.0000      -0.397578       -10.8187
  13   1.0000      -0.357722        -9.7341
  14   1.0000      -0.357722        -9.7341
  15   1.0000      -0.333441        -9.0734
  16   1.0000      -0.328881        -8.9493
  17   1.0000      -0.328881        -8.9493
  18   1.0000      -0.323144        -8.7932
  19   1.0000      -0.323112        -8.7923
  20   1.0000      -0.319949        -8.7063
  21   1.0000      -0.319919        -8.7054
  22   1.0000      -0.304064        -8.2740
  23   1.0000      -0.304027        -8.2730
  24   1.0000      -0.285300        -7.7634
  25   1.0000      -0.285300        -7.7634
  26   1.0000      -0.279954        -7.6179
  27   1.0000      -0.265955        -7.2370
  28   0.0000      -0.189315        -5.1515
  29   0.0000      -0.091675        -2.4946
  30   0.0000      -0.032932        -0.8961
  31   0.0000      -0.032932        -0.8961
  32   0.0000      -0.010346        -0.2815

MULLIKEN ATOMIC CHARGES AND SPIN POPULATIONS
--------------------------------------------
   0 Au:   -0.107548    0.176820
   1 Au:    0.053774    0.411590
   2 Au:    0.053774    0.411590
Sum of atomic charges         :    0.0000000

LOEWDIN ATOMIC CHARGES AND SPIN POPULATIONS
-------------------------------------------
   0 Au:   -0.170234    0.290794
   1 Au:    0.085117    0.354603
   2 Au:    0.085117    0.354603

  Mayer bond orders larger than 0.100000
B(  0-Au,  1-Au) :   0.8058 B(  0-Au,  2-Au) :   0.8058 B(  1-Au,  2-Au) :   0.2783

Dispersion correction           -0.000251472
FINAL SINGLE POINT ENERGY      -407.340229052647

DIPOLE MOMENT
-------------
                                X             Y             Z
Electronic contribution:      0.00000      -0.00000       0.00000
Nuclear contribution   :      0.00000      -0.00000      -0.00000
                        -----------------------------------------
Total Dipole Moment    :      0.00000      -0.00000       0.00000
                        -----------------------------------------
Magnitude (a.u.)       :      0.00000
Magnitude (Debye)      :      0.00000

VIBRATIONAL FREQUENCIES
-----------------------

Scaling factor for frequencies =  1.000000000 (already applied!)

   0:         0.00 cm**-1
   1:         0.00 cm**-1
   2:         0.00 cm**-1
   3:         0.00 cm**-1
   4:         0.00 cm**-1
   5:       -18.79 cm**-1 ***imaginary mode***
   6:       -18.78 cm**-1 ***imaginary mode***
   7:       106.95 cm**-1
   8:       168.96 cm**-1

IR SPECTRUM
-----------

 Mode    freq (cm**-1)   T**2         TX         TY         TZ
-------------------------------------------------------------------
   7:       106.95    0.000000  ( -0.000013  -0.000009  -0.000018)
   8:       168.96    1.206992  ( -0.000012   0.000007  -1.098632)

--------------------------
THERMOCHEMISTRY AT 298.15K
--------------------------

Temperature         ... 298.15 K
Pressure            ... 1.00 atm
Total Mass          ... 590.90 AMU
The molecule is recognized as being linear

Throughout the following assumptions are being made:
  (1) The electronic state is orbitally nondegenerate
      but the spin degeneracy is treated
  (2) There are no thermally accessible electronically excited states
  (3) Hindered rotations indicated by low frequency modes are not
      treated as such but are treated as vibrations and this may
      cause some error
  (4) All equations used are the standard statistical mechanics
      equations for an ideal gas
  (5) All vibrations are strictly harmonic

freq.     106.95  E(vib)   ...       0.45
freq.     168.96  E(vib)   ...       0.38

------------
INNER ENERGY
------------

The inner energy is: U= E(el) + E(ZPE) + E(vib) + E(rot) + E(trans)
    E(el)   - is the total energy from the electronic structure calculation
              = E(kin-el) + E(nuc-el) + E(el-el) + E(nuc-nuc)
    E(ZPE)  - the the zero temperature vibrational energy from the frequency calculation
    E(vib)  - the the finite temperature correction to E(ZPE) due to population
              of excited vibrational states
    E(rot)  - is the rotational thermal energy
    E(trans)- is the translational thermal energy

Summary of contributions to the inner energy U:
Electronic energy                ...   -407.34022905 Eh
Zero point energy                ...      0.00062857 Eh       0.39 kcal/mol
Thermal vibrational correction   ...      0.00133245 Eh       0.84 kcal/mol
Thermal rotational correction    ...      0.00094418 Eh       0.59 kcal/mol
Thermal translational correction ...      0.00141627 Eh       0.89 kcal/mol
-----------------------------------------------------------------------
Total thermal energy                   -407.33590758 Eh

Summary of corrections to the electronic energy:
(perhaps to be used in another calculation)
Total thermal correction                  0.00369290 Eh       2.32 kcal/mol
Non-thermal (ZPE) correction              0.00062857 Eh       0.39 kcal/mol
-----------------------------------------------------------------------
Total correction                          0.00432147 Eh       2.71 kcal/mol

--------
ENTHALPY
--------

The enthalpy is H = U + kB*T
                kB is Boltzmann's constant
Total free energy                 ...   -407.33590758 Eh
Thermal Enthalpy correction       ...      0.00094421 Eh       0.59 kcal/mol
-----------------------------------------------------------------------
Total Enthalpy                    ...   -407.33496337 Eh

Note: Rotational entropy computed according to Herzberg
Infrared and Raman Spectra, Chapter V,1, Van Nostrand Reinhold, 1945
Point Group:  Cinfv, Symmetry Number:   1
Rotational constants in cm-1:     0.000000     0.006331     0.006331

Vibrational entropy computed according to the QRRHO of S. Grimme
Chem.Eur.J. 2012 18 9955

-------
ENTROPY
-------

The entropy contributions are T*S = T*(S(el)+S(vib)+S(rot)+S(trans))
     S(el)   - electronic entropy
     S(vib)  - vibrational entropy
     S(rot)  - rotational entropy
     S(trans)- translational entropy
The entropies will be listed as mutliplied by the temperature to get
units of energy

Electronic entropy                ...      0.00065446 Eh      0.41 kcal/mol
Vibrational entropy               ...      0.00262579 Eh      1.65 kcal/mol
Rotational entropy                ...      0.01076003 Eh      6.75 kcal/mol
Translational entropy             ...      0.02138721 Eh     13.42 kcal/mol
-----------------------------------------------------------------------
Final entropy term                ...      0.03542749 Eh     22.23 kcal/mol

In case the symmetry of your molecule has not been determined correctly
or in case you have a reason to use a different symmetry number we print
out the resulting rotational entropy values for sn=1,12 :
 --------------------------------------------------------
|  sn= 1 | S(rot)=      -0.00234125 Eh     -1.47 kcal/mol|
|  sn= 2 | S(rot)=      -0.00299571 Eh     -1.88 kcal/mol|
|  sn= 3 | S(rot)=      -0.00337854 Eh     -2.12 kcal/mol|
|  sn= 4 | S(rot)=      -0.00365016 Eh     -2.29 kcal/mol|
|  sn= 5 | S(rot)=      -0.00386085 Eh     -2.42 kcal/mol|
|  sn= 6 | S(rot)=      -0.00403300 Eh     -2.53 kcal/mol|
|  sn= 7 | S(rot)=      -0.00417854 Eh     -2.62 kcal/mol|
|  sn= 8 | S(rot)=      -0.00430462 Eh     -2.70 kcal/mol|
|  sn= 9 | S(rot)=      -0.00441583 Eh     -2.77 kcal/mol|
|  sn=10 | S(rot)=      -0.00451531 Eh     -2.83 kcal/mol|
|  sn=11 | S(rot)=      -0.00460530 Eh     -2.89 kcal/mol|
|  sn=12 | S(rot)=      -0.00468745 Eh     -2.94 kcal/mol|
 --------------------------------------------------------

-------------------
GIBBS FREE ENERGY
-------------------

The Gibbs free energy is G = H - T*S

Total enthalpy                    ...   -407.33496337 Eh
Total entropy correction          ...     -0.03542749 Eh    -22.23 kcal/mol
-----------------------------------------------------------------------
Final Gibbs free energy         ...   -407.37039086 Eh

For completeness - the Gibbs free energy minus the electronic energy
G-E(el)                           ...     -0.03016181 Eh    -18.93 kcal/mol

                             ****ORCA TERMINATED NORMALLY****
TOTAL RUN TIME: 0 days 0 hours 3 minutes 56 seconds 420 msec
