                         Program Version 4.2.0 -  RELEASE  -
|  1> #
|  2> # Au03C1_D3H M06-D3/Def2-TZVPPD
|  3> #
|  4> ! m06 d3zero def2-tzvppd def2/jk grid4 nofinalgrid opt xyzfile numfreq
|  5>
|  6> *xyz 1 1
|  7> Au       0.000000    1.501400   -0.000000
|  8> Au       1.300251   -0.750700   -0.000000
|  9> Au      -1.300251   -0.750700   -0.000000
| 10> *
| 11>
| 12> %maxcore 5000
| 13>
| 14> %pal
| 15> nprocs = 24
| 16> end
| 17>
| 18>
| 19>                          ****END OF INPUT****
 Total Charge           Charge          ....    1
 Multiplicity           Mult            ....    1
 Number of Electrons    NEL             ....   56
Dispersion correction           -0.000009395
FINAL SINGLE POINT ENERGY      -407.088206540953
Dispersion correction            ... done
Dispersion correction           -0.000012394
FINAL SINGLE POINT ENERGY      -407.091626842885
Dispersion correction            ... done
Dispersion correction           -0.000011109
FINAL SINGLE POINT ENERGY      -407.091096611903
Dispersion correction            ... done
Dispersion correction           -0.000010923
FINAL SINGLE POINT ENERGY      -407.090923461445
Dispersion correction            ... done
Dispersion correction           -0.000010938
FINAL SINGLE POINT ENERGY      -407.090939054578
Dispersion correction            ... done
                    ***********************HURRAY********************

CARTESIAN COORDINATES (ANGSTROEM)
---------------------------------
  Au    -0.000000    1.530440    0.000000
  Au     1.325101   -0.765220    0.000000
  Au    -1.325101   -0.765220    0.000000

 Multiplicity           Mult            ....    1
 Number of Electrons    NEL             ....   56
 Basis Dimension        Dim             ....  177

ORBITAL ENERGIES
----------------

  NO   OCC          E(Eh)            E(eV)
   0   2.0000      -4.345845      -118.2565
   1   2.0000      -4.345429      -118.2451
   2   2.0000      -4.345423      -118.2450
   3   2.0000      -2.539390       -69.1003
   4   2.0000      -2.534454       -68.9660
   5   2.0000      -2.534453       -68.9660
   6   2.0000      -2.529966       -68.8439
   7   2.0000      -2.529948       -68.8434
   8   2.0000      -2.529444       -68.8297
   9   2.0000      -2.528362       -68.8002
  10   2.0000      -2.527577       -68.7789
  11   2.0000      -2.527574       -68.7788
  12   2.0000      -0.601815       -16.3762
  13   2.0000      -0.571012       -15.5380
  14   2.0000      -0.570977       -15.5371
  15   2.0000      -0.563525       -15.3343
  16   2.0000      -0.543582       -14.7916
  17   2.0000      -0.536928       -14.6105
  18   2.0000      -0.536908       -14.6100
  19   2.0000      -0.509838       -13.8734
  20   2.0000      -0.509818       -13.8728
  21   2.0000      -0.503930       -13.7126
  22   2.0000      -0.503927       -13.7125
  23   2.0000      -0.503251       -13.6942
  24   2.0000      -0.501744       -13.6532
  25   2.0000      -0.501741       -13.6531
  26   2.0000      -0.485638       -13.2149
  27   2.0000      -0.477274       -12.9873
  28   0.0000      -0.308141        -8.3850
  29   0.0000      -0.308118        -8.3843
  30   0.0000      -0.206536        -5.6201
  31   0.0000      -0.177747        -4.8367
  32   0.0000      -0.166397        -4.5279

MULLIKEN ATOMIC CHARGES
-----------------------
   0 Au:    0.333462
   1 Au:    0.333269
   2 Au:    0.333269
Sum of atomic charges:    1.0000000

LOEWDIN ATOMIC CHARGES
----------------------
   0 Au:    0.333342
   1 Au:    0.333329
   2 Au:    0.333329

  Mayer bond orders larger than 0.100000
B(  0-Au,  1-Au) :   0.6305 B(  0-Au,  2-Au) :   0.6305 B(  1-Au,  2-Au) :   0.6308

Dispersion correction           -0.000010941
FINAL SINGLE POINT ENERGY      -407.090941491442

DIPOLE MOMENT
-------------
                                X             Y             Z
Electronic contribution:      0.00000       0.00015      -0.00000
Nuclear contribution   :      0.00000      -0.00000       0.00000
                        -----------------------------------------
Total Dipole Moment    :      0.00000       0.00015      -0.00000
                        -----------------------------------------
Magnitude (a.u.)       :      0.00015
Magnitude (Debye)      :      0.00039

VIBRATIONAL FREQUENCIES
-----------------------

Scaling factor for frequencies =  1.000000000 (already applied!)

   0:         0.00 cm**-1
   1:         0.00 cm**-1
   2:         0.00 cm**-1
   3:         0.00 cm**-1
   4:         0.00 cm**-1
   5:         0.00 cm**-1
   6:       111.51 cm**-1
   7:       111.90 cm**-1
   8:       170.29 cm**-1

IR SPECTRUM
-----------

 Mode    freq (cm**-1)   T**2         TX         TY         TZ
-------------------------------------------------------------------
   6:       111.51    0.447238  (  0.005193   0.668739  -0.000021)
   7:       111.90    0.363677  ( -0.602991   0.008873  -0.000008)
   8:       170.29    0.000138  ( -0.001359  -0.011669  -0.000016)

--------------------------
THERMOCHEMISTRY AT 298.15K
--------------------------

Temperature         ... 298.15 K
Pressure            ... 1.00 atm
Total Mass          ... 590.90 AMU

Throughout the following assumptions are being made:
  (1) The electronic state is orbitally nondegenerate
  (2) There are no thermally accessible electronically excited states
  (3) Hindered rotations indicated by low frequency modes are not
      treated as such but are treated as vibrations and this may
      cause some error
  (4) All equations used are the standard statistical mechanics
      equations for an ideal gas
  (5) All vibrations are strictly harmonic

freq.     111.51  E(vib)   ...       0.45
freq.     111.90  E(vib)   ...       0.45
freq.     170.29  E(vib)   ...       0.38

------------
INNER ENERGY
------------

The inner energy is: U= E(el) + E(ZPE) + E(vib) + E(rot) + E(trans)
    E(el)   - is the total energy from the electronic structure calculation
              = E(kin-el) + E(nuc-el) + E(el-el) + E(nuc-nuc)
    E(ZPE)  - the the zero temperature vibrational energy from the frequency calculation
    E(vib)  - the the finite temperature correction to E(ZPE) due to population
              of excited vibrational states
    E(rot)  - is the rotational thermal energy
    E(trans)- is the translational thermal energy

Summary of contributions to the inner energy U:
Electronic energy                ...   -407.09094150 Eh
Zero point energy                ...      0.00089690 Eh       0.56 kcal/mol
Thermal vibrational correction   ...      0.00203377 Eh       1.28 kcal/mol
Thermal rotational correction    ...      0.00141627 Eh       0.89 kcal/mol
Thermal translational correction ...      0.00141627 Eh       0.89 kcal/mol
-----------------------------------------------------------------------
Total thermal energy                   -407.08517829 Eh

Summary of corrections to the electronic energy:
(perhaps to be used in another calculation)
Total thermal correction                  0.00486632 Eh       3.05 kcal/mol
Non-thermal (ZPE) correction              0.00089690 Eh       0.56 kcal/mol
-----------------------------------------------------------------------
Total correction                          0.00576322 Eh       3.62 kcal/mol

--------
ENTHALPY
--------

The enthalpy is H = U + kB*T
                kB is Boltzmann's constant
Total free energy                 ...   -407.08517829 Eh
Thermal Enthalpy correction       ...      0.00094421 Eh       0.59 kcal/mol
-----------------------------------------------------------------------
Total Enthalpy                    ...   -407.08423408 Eh

Note: Rotational entropy computed according to Herzberg
Infrared and Raman Spectra, Chapter V,1, Van Nostrand Reinhold, 1945
Point Group:  C2v, Symmetry Number:   2
Rotational constants in cm-1:     0.024371     0.024360     0.012183

Vibrational entropy computed according to the QRRHO of S. Grimme
Chem.Eur.J. 2012 18 9955

-------
ENTROPY
-------

The entropy contributions are T*S = T*(S(el)+S(vib)+S(rot)+S(trans))
     S(el)   - electronic entropy
     S(vib)  - vibrational entropy
     S(rot)  - rotational entropy
     S(trans)- translational entropy
The entropies will be listed as mutliplied by the temperature to get
units of energy

Electronic entropy                ...      0.00000000 Eh      0.00 kcal/mol
Vibrational entropy               ...      0.00404481 Eh      2.54 kcal/mol
Rotational entropy                ...      0.01444443 Eh      9.06 kcal/mol
Translational entropy             ...      0.02138721 Eh     13.42 kcal/mol
-----------------------------------------------------------------------
Final entropy term                ...      0.03987646 Eh     25.02 kcal/mol

In case the symmetry of your molecule has not been determined correctly
or in case you have a reason to use a different symmetry number we print
out the resulting rotational entropy values for sn=1,12 :
 --------------------------------------------------------
|  sn= 1 | S(rot)=       0.01509889 Eh      9.47 kcal/mol|
|  sn= 2 | S(rot)=       0.01444443 Eh      9.06 kcal/mol|
|  sn= 3 | S(rot)=       0.01406160 Eh      8.82 kcal/mol|
|  sn= 4 | S(rot)=       0.01378998 Eh      8.65 kcal/mol|
|  sn= 5 | S(rot)=       0.01357929 Eh      8.52 kcal/mol|
|  sn= 6 | S(rot)=       0.01340715 Eh      8.41 kcal/mol|
|  sn= 7 | S(rot)=       0.01326160 Eh      8.32 kcal/mol|
|  sn= 8 | S(rot)=       0.01313552 Eh      8.24 kcal/mol|
|  sn= 9 | S(rot)=       0.01302431 Eh      8.17 kcal/mol|
|  sn=10 | S(rot)=       0.01292483 Eh      8.11 kcal/mol|
|  sn=11 | S(rot)=       0.01283484 Eh      8.05 kcal/mol|
|  sn=12 | S(rot)=       0.01275269 Eh      8.00 kcal/mol|
 --------------------------------------------------------

-------------------
GIBBS FREE ENERGY
-------------------

The Gibbs free energy is G = H - T*S

Total enthalpy                    ...   -407.08423408 Eh
Total entropy correction          ...     -0.03987646 Eh    -25.02 kcal/mol
-----------------------------------------------------------------------
Final Gibbs free energy         ...   -407.12411054 Eh

For completeness - the Gibbs free energy minus the electronic energy
G-E(el)                           ...     -0.03316903 Eh    -20.81 kcal/mol

                             ****ORCA TERMINATED NORMALLY****
TOTAL RUN TIME: 0 days 0 hours 4 minutes 10 seconds 447 msec
