                         Program Version 4.2.0 -  RELEASE  -
|  1> #
|  2> # Au03N0_D3H M06-D3/Def2-TZVPPD
|  3> #
|  4> ! m06 d3zero def2-tzvppd def2/jk grid4 nofinalgrid opt xyzfile numfreq
|  5>
|  6> *xyz 0 2
|  7> Au       0.000000    1.515176   -0.000000
|  8> Au       1.312181   -0.757588    0.000000
|  9> Au      -1.312181   -0.757588   -0.000000
| 10> *
| 11>
| 12> %maxcore 5000
| 13>
| 14> %pal
| 15> nprocs = 24
| 16> end
| 17>
| 18>
| 19>                          ****END OF INPUT****
 Total Charge           Charge          ....    0
 Multiplicity           Mult            ....    2
 Number of Electrons    NEL             ....   57
Dispersion correction           -0.000010107
FINAL SINGLE POINT ENERGY      -407.333953819202
Dispersion correction            ... done
Dispersion correction           -0.000012632
FINAL SINGLE POINT ENERGY      -407.339205039245
Dispersion correction            ... done
Dispersion correction           -0.000012746
FINAL SINGLE POINT ENERGY      -407.336604128396
Dispersion correction            ... done
Dispersion correction           -0.000014085
FINAL SINGLE POINT ENERGY      -407.339823914590
Dispersion correction            ... done
Dispersion correction           -0.000014170
FINAL SINGLE POINT ENERGY      -407.339794256536
Dispersion correction            ... done
                    ***********************HURRAY********************

CARTESIAN COORDINATES (ANGSTROEM)
---------------------------------
  Au     0.000003    1.656398    0.000000
  Au     1.288719   -0.828196    0.000000
  Au    -1.288722   -0.828202    0.000000

 Multiplicity           Mult            ....    2
 Number of Electrons    NEL             ....   57
 Basis Dimension        Dim             ....  177

ORBITAL ENERGIES
----------------
                 SPIN UP ORBITALS
  NO   OCC          E(Eh)            E(eV)
   0   1.0000      -4.154736      -113.0561
   1   1.0000      -4.154314      -113.0446
   2   1.0000      -4.131545      -112.4250
   3   1.0000      -2.347574       -63.8807
   4   1.0000      -2.340474       -63.6875
   5   1.0000      -2.339985       -63.6742
   6   1.0000      -2.338028       -63.6210
   7   1.0000      -2.337685       -63.6117
   8   1.0000      -2.337306       -63.6013
   9   1.0000      -2.320427       -63.1420
  10   1.0000      -2.316761       -63.0423
  11   1.0000      -2.313287       -62.9477
  12   1.0000      -0.400575       -10.9002
  13   1.0000      -0.382028       -10.3955
  14   1.0000      -0.366745        -9.9796
  15   1.0000      -0.354974        -9.6593
  16   1.0000      -0.346341        -9.4244
  17   1.0000      -0.344035        -9.3617
  18   1.0000      -0.331805        -9.0289
  19   1.0000      -0.315863        -8.5951
  20   1.0000      -0.312027        -8.4907
  21   1.0000      -0.310466        -8.4482
  22   1.0000      -0.309708        -8.4276
  23   1.0000      -0.304968        -8.2986
  24   1.0000      -0.301450        -8.2029
  25   1.0000      -0.300723        -8.1831
  26   1.0000      -0.291728        -7.9383
  27   1.0000      -0.283912        -7.7256
  28   1.0000      -0.185824        -5.0565
  29   0.0000      -0.138672        -3.7735
  30   0.0000      -0.044375        -1.2075
  31   0.0000      -0.024384        -0.6635
  32   0.0000      -0.013397        -0.3646
  33   0.0000      -0.006312        -0.1718

                 SPIN DOWN ORBITALS
  NO   OCC          E(Eh)            E(eV)
   0   1.0000      -4.153468      -113.0216
   1   1.0000      -4.153047      -113.0102
   2   1.0000      -4.127845      -112.3244
   3   1.0000      -2.346741       -63.8581
   4   1.0000      -2.338214       -63.6260
   5   1.0000      -2.337190       -63.5982
   6   1.0000      -2.337187       -63.5981
   7   1.0000      -2.336469       -63.5785
   8   1.0000      -2.336403       -63.5767
   9   1.0000      -2.313246       -62.9466
  10   1.0000      -2.313165       -62.9444
  11   1.0000      -2.310273       -62.8657
  12   1.0000      -0.397286       -10.8107
  13   1.0000      -0.378930       -10.3112
  14   1.0000      -0.365836        -9.9549
  15   1.0000      -0.349540        -9.5115
  16   1.0000      -0.343053        -9.3349
  17   1.0000      -0.342169        -9.3109
  18   1.0000      -0.329685        -8.9712
  19   1.0000      -0.314618        -8.5612
  20   1.0000      -0.310219        -8.4415
  21   1.0000      -0.310100        -8.4382
  22   1.0000      -0.304765        -8.2931
  23   1.0000      -0.301343        -8.1999
  24   1.0000      -0.298368        -8.1190
  25   1.0000      -0.295722        -8.0470
  26   1.0000      -0.286149        -7.7865
  27   1.0000      -0.278765        -7.5856
  28   0.0000      -0.134630        -3.6635
  29   0.0000      -0.127313        -3.4644
  30   0.0000      -0.042129        -1.1464
  31   0.0000      -0.016204        -0.4409
  32   0.0000      -0.005202        -0.1416

MULLIKEN ATOMIC CHARGES AND SPIN POPULATIONS
--------------------------------------------
   0 Au:   -0.082728    0.614204
   1 Au:    0.041366    0.192893
   2 Au:    0.041361    0.192903
Sum of atomic charges         :   -0.0000000

LOEWDIN ATOMIC CHARGES AND SPIN POPULATIONS
-------------------------------------------
   0 Au:   -0.073253    0.527448
   1 Au:    0.036627    0.236273
   2 Au:    0.036625    0.236279

  Mayer bond orders larger than 0.100000
B(  0-Au,  1-Au) :   0.5426 B(  0-Au,  2-Au) :   0.5426 B(  1-Au,  2-Au) :   0.8646

Dispersion correction           -0.000014193
FINAL SINGLE POINT ENERGY      -407.339782280842

DIPOLE MOMENT
-------------
                                X             Y             Z
Electronic contribution:      0.00001      -0.51561       0.00000
Nuclear contribution   :      0.00000       0.00000       0.00000
                        -----------------------------------------
Total Dipole Moment    :      0.00001      -0.51561       0.00000
                        -----------------------------------------
Magnitude (a.u.)       :      0.51561
Magnitude (Debye)      :      1.31056

VIBRATIONAL FREQUENCIES
-----------------------

Scaling factor for frequencies =  1.000000000 (already applied!)

   0:         0.00 cm**-1
   1:         0.00 cm**-1
   2:         0.00 cm**-1
   3:         0.00 cm**-1
   4:         0.00 cm**-1
   5:         0.00 cm**-1
   6:       -92.19 cm**-1 ***imaginary mode***
   7:        98.05 cm**-1
   8:       167.30 cm**-1

IR SPECTRUM
-----------

 Mode    freq (cm**-1)   T**2         TX         TY         TZ
-------------------------------------------------------------------
   7:        98.05    0.092816  ( -0.000066  -0.304657  -0.000020)
   8:       167.30    0.046404  (  0.000102  -0.215416   0.000016)

--------------------------
THERMOCHEMISTRY AT 298.15K
--------------------------

Temperature         ... 298.15 K
Pressure            ... 1.00 atm
Total Mass          ... 590.90 AMU

Throughout the following assumptions are being made:
  (1) The electronic state is orbitally nondegenerate
      but the spin degeneracy is treated
  (2) There are no thermally accessible electronically excited states
  (3) Hindered rotations indicated by low frequency modes are not
      treated as such but are treated as vibrations and this may
      cause some error
  (4) All equations used are the standard statistical mechanics
      equations for an ideal gas
  (5) All vibrations are strictly harmonic

freq.      98.05  E(vib)   ...       0.46
freq.     167.30  E(vib)   ...       0.39

------------
INNER ENERGY
------------

The inner energy is: U= E(el) + E(ZPE) + E(vib) + E(rot) + E(trans)
    E(el)   - is the total energy from the electronic structure calculation
              = E(kin-el) + E(nuc-el) + E(el-el) + E(nuc-nuc)
    E(ZPE)  - the the zero temperature vibrational energy from the frequency calculation
    E(vib)  - the the finite temperature correction to E(ZPE) due to population
              of excited vibrational states
    E(rot)  - is the rotational thermal energy
    E(trans)- is the translational thermal energy

Summary of contributions to the inner energy U:
Electronic energy                ...   -407.33978228 Eh
Zero point energy                ...      0.00060451 Eh       0.38 kcal/mol
Thermal vibrational correction   ...      0.00135219 Eh       0.85 kcal/mol
Thermal rotational correction    ...      0.00141627 Eh       0.89 kcal/mol
Thermal translational correction ...      0.00141627 Eh       0.89 kcal/mol
-----------------------------------------------------------------------
Total thermal energy                   -407.33499304 Eh

Summary of corrections to the electronic energy:
(perhaps to be used in another calculation)
Total thermal correction                  0.00418474 Eh       2.63 kcal/mol
Non-thermal (ZPE) correction              0.00060451 Eh       0.38 kcal/mol
-----------------------------------------------------------------------
Total correction                          0.00478924 Eh       3.01 kcal/mol

--------
ENTHALPY
--------

The enthalpy is H = U + kB*T
                kB is Boltzmann's constant
Total free energy                 ...   -407.33499304 Eh
Thermal Enthalpy correction       ...      0.00094421 Eh       0.59 kcal/mol
-----------------------------------------------------------------------
Total Enthalpy                    ...   -407.33404883 Eh

Note: Rotational entropy computed according to Herzberg
Infrared and Raman Spectra, Chapter V,1, Van Nostrand Reinhold, 1945
Point Group:  Cs, Symmetry Number:   1
Rotational constants in cm-1:     0.025767     0.020796     0.011508

Vibrational entropy computed according to the QRRHO of S. Grimme
Chem.Eur.J. 2012 18 9955

-------
ENTROPY
-------

The entropy contributions are T*S = T*(S(el)+S(vib)+S(rot)+S(trans))
     S(el)   - electronic entropy
     S(vib)  - vibrational entropy
     S(rot)  - rotational entropy
     S(trans)- translational entropy
The entropies will be listed as mutliplied by the temperature to get
units of energy

Electronic entropy                ...      0.00065446 Eh      0.41 kcal/mol
Vibrational entropy               ...      0.00267188 Eh      1.68 kcal/mol
Rotational entropy                ...      0.01517418 Eh      9.52 kcal/mol
Translational entropy             ...      0.02138721 Eh     13.42 kcal/mol
-----------------------------------------------------------------------
Final entropy term                ...      0.03988774 Eh     25.03 kcal/mol

In case the symmetry of your molecule has not been determined correctly
or in case you have a reason to use a different symmetry number we print
out the resulting rotational entropy values for sn=1,12 :
 --------------------------------------------------------
|  sn= 1 | S(rot)=       0.01517418 Eh      9.52 kcal/mol|
|  sn= 2 | S(rot)=       0.01451973 Eh      9.11 kcal/mol|
|  sn= 3 | S(rot)=       0.01413689 Eh      8.87 kcal/mol|
|  sn= 4 | S(rot)=       0.01386527 Eh      8.70 kcal/mol|
|  sn= 5 | S(rot)=       0.01365458 Eh      8.57 kcal/mol|
|  sn= 6 | S(rot)=       0.01348244 Eh      8.46 kcal/mol|
|  sn= 7 | S(rot)=       0.01333689 Eh      8.37 kcal/mol|
|  sn= 8 | S(rot)=       0.01321081 Eh      8.29 kcal/mol|
|  sn= 9 | S(rot)=       0.01309960 Eh      8.22 kcal/mol|
|  sn=10 | S(rot)=       0.01300012 Eh      8.16 kcal/mol|
|  sn=11 | S(rot)=       0.01291013 Eh      8.10 kcal/mol|
|  sn=12 | S(rot)=       0.01282798 Eh      8.05 kcal/mol|
 --------------------------------------------------------

-------------------
GIBBS FREE ENERGY
-------------------

The Gibbs free energy is G = H - T*S

Total enthalpy                    ...   -407.33404883 Eh
Total entropy correction          ...     -0.03988774 Eh    -25.03 kcal/mol
-----------------------------------------------------------------------
Final Gibbs free energy         ...   -407.37393657 Eh

For completeness - the Gibbs free energy minus the electronic energy
G-E(el)                           ...     -0.03415428 Eh    -21.43 kcal/mol

                             ****ORCA TERMINATED NORMALLY****
TOTAL RUN TIME: 0 days 0 hours 5 minutes 20 seconds 894 msec
