                         Program Version 4.2.0 -  RELEASE  -
|  1> #
|  2> # Au03C1_LIN M06-D3/Def2-TZVPPD
|  3> #
|  4> ! m06 d3zero def2-tzvppd def2/jk grid4 nofinalgrid opt xyzfile numfreq
|  5>
|  6> *xyz 1 1
|  7> Au       0.000000    0.000000    0.000000
|  8> Au       0.000000    0.000000    2.576864
|  9> Au       0.000000    0.000000   -2.576864
| 10> *
| 11>
| 12> %maxcore 5000
| 13>
| 14> %pal
| 15> nprocs = 24
| 16> end
| 17>
| 18>
| 19>                          ****END OF INPUT****
 Total Charge           Charge          ....    1
 Multiplicity           Mult            ....    1
 Number of Electrons    NEL             ....   56
Dispersion correction           -0.000254367
FINAL SINGLE POINT ENERGY      -407.029345503828
Dispersion correction            ... done
Dispersion correction           -0.000234795
FINAL SINGLE POINT ENERGY      -407.031297894620
Dispersion correction            ... done
Dispersion correction           -0.000246440
FINAL SINGLE POINT ENERGY      -407.031136299404
Dispersion correction            ... done
Dispersion correction           -0.000248006
FINAL SINGLE POINT ENERGY      -407.030956682256
Dispersion correction            ... done
Dispersion correction           -0.000247820
FINAL SINGLE POINT ENERGY      -407.030981044077
Dispersion correction            ... done
                    ***********************HURRAY********************

CARTESIAN COORDINATES (ANGSTROEM)
---------------------------------
  Au     0.000000   -0.000000   -0.000023
  Au    -0.000000    0.000000    2.623459
  Au    -0.000000    0.000000   -2.623437

 Multiplicity           Mult            ....    1
 Number of Electrons    NEL             ....   56
 Basis Dimension        Dim             ....  177

ORBITAL ENERGIES
----------------

  NO   OCC          E(Eh)            E(eV)
   0   2.0000      -4.345000      -118.2335
   1   2.0000      -4.344996      -118.2334
   2   2.0000      -4.308727      -117.2464
   3   2.0000      -2.534690       -68.9724
   4   2.0000      -2.533928       -68.9517
   5   2.0000      -2.529754       -68.8381
   6   2.0000      -2.529754       -68.8381
   7   2.0000      -2.529735       -68.8376
   8   2.0000      -2.529735       -68.8376
   9   2.0000      -2.500269       -68.0358
  10   2.0000      -2.490992       -67.7833
  11   2.0000      -2.490992       -67.7833
  12   2.0000      -0.587337       -15.9822
  13   2.0000      -0.549217       -14.9450
  14   2.0000      -0.549217       -14.9450
  15   2.0000      -0.534383       -14.5413
  16   2.0000      -0.530470       -14.4348
  17   2.0000      -0.530470       -14.4348
  18   2.0000      -0.524183       -14.2638
  19   2.0000      -0.524155       -14.2630
  20   2.0000      -0.523289       -14.2394
  21   2.0000      -0.523260       -14.2386
  22   2.0000      -0.479243       -13.0409
  23   2.0000      -0.479208       -13.0399
  24   2.0000      -0.473046       -12.8722
  25   2.0000      -0.473046       -12.8722
  26   2.0000      -0.471794       -12.8382
  27   2.0000      -0.442002       -12.0275
  28   0.0000      -0.374140       -10.1809
  29   0.0000      -0.261852        -7.1254
  30   0.0000      -0.189177        -5.1478
  31   0.0000      -0.189177        -5.1478
  32   0.0000      -0.168402        -4.5825

MULLIKEN ATOMIC CHARGES
-----------------------
   0 Au:    0.176539
   1 Au:    0.411737
   2 Au:    0.411724
Sum of atomic charges:    1.0000000

LOEWDIN ATOMIC CHARGES
----------------------
   0 Au:    0.147826
   1 Au:    0.426093
   2 Au:    0.426081

  Mayer bond orders larger than 0.100000
B(  0-Au,  1-Au) :   0.6236 B(  0-Au,  2-Au) :   0.6236 B(  1-Au,  2-Au) :   0.4307

Dispersion correction           -0.000247823
FINAL SINGLE POINT ENERGY      -407.030980537144

DIPOLE MOMENT
-------------
                                X             Y             Z
Electronic contribution:      0.00000       0.00000       0.00006
Nuclear contribution   :      0.00000      -0.00000      -0.00000
                        -----------------------------------------
Total Dipole Moment    :      0.00000       0.00000       0.00006
                        -----------------------------------------
Magnitude (a.u.)       :      0.00006
Magnitude (Debye)      :      0.00014

VIBRATIONAL FREQUENCIES
-----------------------

Scaling factor for frequencies =  1.000000000 (already applied!)

   0:         0.00 cm**-1
   1:         0.00 cm**-1
   2:         0.00 cm**-1
   3:         0.00 cm**-1
   4:         0.00 cm**-1
   5:       -48.83 cm**-1 ***imaginary mode***
   6:       -48.82 cm**-1 ***imaginary mode***
   7:        99.82 cm**-1
   8:       166.66 cm**-1

IR SPECTRUM
-----------

 Mode    freq (cm**-1)   T**2         TX         TY         TZ
-------------------------------------------------------------------
   7:        99.82    0.000000  ( -0.000010  -0.000008  -0.000368)
   8:       166.66   10.146169  ( -0.000002   0.000000  -3.185305)

--------------------------
THERMOCHEMISTRY AT 298.15K
--------------------------

Temperature         ... 298.15 K
Pressure            ... 1.00 atm
Total Mass          ... 590.90 AMU
The molecule is recognized as being linear

Throughout the following assumptions are being made:
  (1) The electronic state is orbitally nondegenerate
  (2) There are no thermally accessible electronically excited states
  (3) Hindered rotations indicated by low frequency modes are not
      treated as such but are treated as vibrations and this may
      cause some error
  (4) All equations used are the standard statistical mechanics
      equations for an ideal gas
  (5) All vibrations are strictly harmonic

freq.      99.82  E(vib)   ...       0.46
freq.     166.66  E(vib)   ...       0.39

------------
INNER ENERGY
------------

The inner energy is: U= E(el) + E(ZPE) + E(vib) + E(rot) + E(trans)
    E(el)   - is the total energy from the electronic structure calculation
              = E(kin-el) + E(nuc-el) + E(el-el) + E(nuc-nuc)
    E(ZPE)  - the the zero temperature vibrational energy from the frequency calculation
    E(vib)  - the the finite temperature correction to E(ZPE) due to population
              of excited vibrational states
    E(rot)  - is the rotational thermal energy
    E(trans)- is the translational thermal energy

Summary of contributions to the inner energy U:
Electronic energy                ...   -407.03098054 Eh
Zero point energy                ...      0.00060709 Eh       0.38 kcal/mol
Thermal vibrational correction   ...      0.00134986 Eh       0.85 kcal/mol
Thermal rotational correction    ...      0.00094418 Eh       0.59 kcal/mol
Thermal translational correction ...      0.00141627 Eh       0.89 kcal/mol
-----------------------------------------------------------------------
Total thermal energy                   -407.02666313 Eh

Summary of corrections to the electronic energy:
(perhaps to be used in another calculation)
Total thermal correction                  0.00371032 Eh       2.33 kcal/mol
Non-thermal (ZPE) correction              0.00060709 Eh       0.38 kcal/mol
-----------------------------------------------------------------------
Total correction                          0.00431741 Eh       2.71 kcal/mol

--------
ENTHALPY
--------

The enthalpy is H = U + kB*T
                kB is Boltzmann's constant
Total free energy                 ...   -407.02666313 Eh
Thermal Enthalpy correction       ...      0.00094421 Eh       0.59 kcal/mol
-----------------------------------------------------------------------
Total Enthalpy                    ...   -407.02571892 Eh

Note: Rotational entropy computed according to Herzberg
Infrared and Raman Spectra, Chapter V,1, Van Nostrand Reinhold, 1945
Point Group:  Cinfv, Symmetry Number:   1
Rotational constants in cm-1:     0.000000     0.006218     0.006218

Vibrational entropy computed according to the QRRHO of S. Grimme
Chem.Eur.J. 2012 18 9955

-------
ENTROPY
-------

The entropy contributions are T*S = T*(S(el)+S(vib)+S(rot)+S(trans))
     S(el)   - electronic entropy
     S(vib)  - vibrational entropy
     S(rot)  - rotational entropy
     S(trans)- translational entropy
The entropies will be listed as mutliplied by the temperature to get
units of energy

Electronic entropy                ...      0.00000000 Eh      0.00 kcal/mol
Vibrational entropy               ...      0.00266777 Eh      1.67 kcal/mol
Rotational entropy                ...      0.01077704 Eh      6.76 kcal/mol
Translational entropy             ...      0.02138721 Eh     13.42 kcal/mol
-----------------------------------------------------------------------
Final entropy term                ...      0.03483202 Eh     21.86 kcal/mol

In case the symmetry of your molecule has not been determined correctly
or in case you have a reason to use a different symmetry number we print
out the resulting rotational entropy values for sn=1,12 :
 --------------------------------------------------------
|  sn= 1 | S(rot)=      -0.00088832 Eh     -0.56 kcal/mol|
|  sn= 2 | S(rot)=      -0.00154277 Eh     -0.97 kcal/mol|
|  sn= 3 | S(rot)=      -0.00192560 Eh     -1.21 kcal/mol|
|  sn= 4 | S(rot)=      -0.00219723 Eh     -1.38 kcal/mol|
|  sn= 5 | S(rot)=      -0.00240792 Eh     -1.51 kcal/mol|
|  sn= 6 | S(rot)=      -0.00258006 Eh     -1.62 kcal/mol|
|  sn= 7 | S(rot)=      -0.00272561 Eh     -1.71 kcal/mol|
|  sn= 8 | S(rot)=      -0.00285168 Eh     -1.79 kcal/mol|
|  sn= 9 | S(rot)=      -0.00296289 Eh     -1.86 kcal/mol|
|  sn=10 | S(rot)=      -0.00306237 Eh     -1.92 kcal/mol|
|  sn=11 | S(rot)=      -0.00315236 Eh     -1.98 kcal/mol|
|  sn=12 | S(rot)=      -0.00323452 Eh     -2.03 kcal/mol|
 --------------------------------------------------------

-------------------
GIBBS FREE ENERGY
-------------------

The Gibbs free energy is G = H - T*S

Total enthalpy                    ...   -407.02571892 Eh
Total entropy correction          ...     -0.03483202 Eh    -21.86 kcal/mol
-----------------------------------------------------------------------
Final Gibbs free energy         ...   -407.06055094 Eh

For completeness - the Gibbs free energy minus the electronic energy
G-E(el)                           ...     -0.02957041 Eh    -18.56 kcal/mol

                             ****ORCA TERMINATED NORMALLY****
TOTAL RUN TIME: 0 days 0 hours 3 minutes 28 seconds 399 msec
