                         Program Version 4.2.0 -  RELEASE  -
|  1> #
|  2> # Cu01N0_F M06-D3/Def2-TZVPPD
|  3> #
|  4> ! m06 d3zero def2-tzvppd def2/jk grid4 nofinalgrid opt xyzfile numfreq
|  5>
|  6> *xyz 0 1
|  7> Cu       0.000000    0.000000    0.412716
|  8> F        0.000000    0.000000   -1.329863
|  9> *
| 10>
| 11> %maxcore 5000
| 12>
| 13> %pal
| 14> nprocs = 24
| 15> end
| 16>
| 17>
| 18>                          ****END OF INPUT****
 Total Charge           Charge          ....    0
 Multiplicity           Mult            ....    1
 Number of Electrons    NEL             ....   38
Dispersion correction           -0.000000103
FINAL SINGLE POINT ENERGY     -1740.336843423339
Dispersion correction            ... done
Dispersion correction           -0.000000103
FINAL SINGLE POINT ENERGY     -1740.336845826177
Dispersion correction            ... done
Dispersion correction           -0.000000104
FINAL SINGLE POINT ENERGY     -1740.336855734313
Dispersion correction            ... done
                    ***********************HURRAY********************

CARTESIAN COORDINATES (ANGSTROEM)
---------------------------------
  Cu     0.000000    0.000000    0.414375
  F      0.000000    0.000000   -1.331522

 Multiplicity           Mult            ....    1
 Number of Electrons    NEL             ....   38
 Basis Dimension        Dim             ....  107

ORBITAL ENERGIES
----------------

  NO   OCC          E(Eh)            E(eV)
   0   2.0000    -323.307640     -8797.6481
   1   2.0000     -39.085550     -1063.5719
   2   2.0000     -34.198164      -930.5794
   3   2.0000     -34.197950      -930.5735
   4   2.0000     -34.197950      -930.5735
   5   2.0000     -24.674653      -671.4314
   6   2.0000      -4.433003      -120.6282
   7   2.0000      -2.888854       -78.6097
   8   2.0000      -2.885780       -78.5261
   9   2.0000      -2.885780       -78.5261
  10   2.0000      -1.097677       -29.8693
  11   2.0000      -0.411659       -11.2018
  12   2.0000      -0.377240       -10.2652
  13   2.0000      -0.377240       -10.2652
  14   2.0000      -0.333499        -9.0750
  15   2.0000      -0.333498        -9.0749
  16   2.0000      -0.301561        -8.2059
  17   2.0000      -0.301561        -8.2059
  18   2.0000      -0.294376        -8.0104
  19   0.0000      -0.118683        -3.2295
  20   0.0000      -0.027498        -0.7482
  21   0.0000      -0.027498        -0.7482
  22   0.0000      -0.002013        -0.0548
  23   0.0000       0.027460         0.7472

MULLIKEN ATOMIC CHARGES
-----------------------
   0 Cu:    0.629969
   1 F :   -0.629969
Sum of atomic charges:    0.0000000

LOEWDIN ATOMIC CHARGES
----------------------
   0 Cu:    0.556078
   1 F :   -0.556078

  Mayer bond orders larger than 0.100000
B(  0-Cu,  1-F ) :   0.7195

Dispersion correction           -0.000000104
FINAL SINGLE POINT ENERGY     -1740.336855792871

DIPOLE MOMENT
-------------
                                X             Y             Z
Electronic contribution:     -0.00000       0.00000       2.82085
Nuclear contribution   :      0.00000       0.00000      -0.83964
                        -----------------------------------------
Total Dipole Moment    :     -0.00000       0.00000       1.98121
                        -----------------------------------------
Magnitude (a.u.)       :      1.98121
Magnitude (Debye)      :      5.03583

VIBRATIONAL FREQUENCIES
-----------------------

Scaling factor for frequencies =  1.000000000 (already applied!)

   0:         0.00 cm**-1
   1:         0.00 cm**-1
   2:         0.00 cm**-1
   3:         0.00 cm**-1
   4:         0.00 cm**-1
   5:       626.19 cm**-1

IR SPECTRUM
-----------

 Mode    freq (cm**-1)   T**2         TX         TY         TZ
-------------------------------------------------------------------
   5:       626.19   56.846562  (  0.000037  -0.000006   7.539666)

--------------------------
THERMOCHEMISTRY AT 298.15K
--------------------------

Temperature         ... 298.15 K
Pressure            ... 1.00 atm
Total Mass          ... 82.55 AMU
The molecule is recognized as being linear

Throughout the following assumptions are being made:
  (1) The electronic state is orbitally nondegenerate
  (2) There are no thermally accessible electronically excited states
  (3) Hindered rotations indicated by low frequency modes are not
      treated as such but are treated as vibrations and this may
      cause some error
  (4) All equations used are the standard statistical mechanics
      equations for an ideal gas
  (5) All vibrations are strictly harmonic

freq.     626.19  E(vib)   ...       0.09

------------
INNER ENERGY
------------

The inner energy is: U= E(el) + E(ZPE) + E(vib) + E(rot) + E(trans)
    E(el)   - is the total energy from the electronic structure calculation
              = E(kin-el) + E(nuc-el) + E(el-el) + E(nuc-nuc)
    E(ZPE)  - the the zero temperature vibrational energy from the frequency calculation
    E(vib)  - the the finite temperature correction to E(ZPE) due to population
              of excited vibrational states
    E(rot)  - is the rotational thermal energy
    E(trans)- is the translational thermal energy

Summary of contributions to the inner energy U:
Electronic energy                ...  -1740.33685579 Eh
Zero point energy                ...      0.00142656 Eh       0.90 kcal/mol
Thermal vibrational correction   ...      0.00014612 Eh       0.09 kcal/mol
Thermal rotational correction    ...      0.00094418 Eh       0.59 kcal/mol
Thermal translational correction ...      0.00141627 Eh       0.89 kcal/mol
-----------------------------------------------------------------------
Total thermal energy                  -1740.33292266 Eh

Summary of corrections to the electronic energy:
(perhaps to be used in another calculation)
Total thermal correction                  0.00250657 Eh       1.57 kcal/mol
Non-thermal (ZPE) correction              0.00142656 Eh       0.90 kcal/mol
-----------------------------------------------------------------------
Total correction                          0.00393313 Eh       2.47 kcal/mol

--------
ENTHALPY
--------

The enthalpy is H = U + kB*T
                kB is Boltzmann's constant
Total free energy                 ...  -1740.33292266 Eh
Thermal Enthalpy correction       ...      0.00094421 Eh       0.59 kcal/mol
-----------------------------------------------------------------------
Total Enthalpy                    ...  -1740.33197845 Eh

Note: Rotational entropy computed according to Herzberg
Infrared and Raman Spectra, Chapter V,1, Van Nostrand Reinhold, 1945
Point Group:  Cinfv, Symmetry Number:   1
Rotational constants in cm-1:     0.000000     0.378132     0.378132

Vibrational entropy computed according to the QRRHO of S. Grimme
Chem.Eur.J. 2012 18 9955

-------
ENTROPY
-------

The entropy contributions are T*S = T*(S(el)+S(vib)+S(rot)+S(trans))
     S(el)   - electronic entropy
     S(vib)  - vibrational entropy
     S(rot)  - rotational entropy
     S(trans)- translational entropy
The entropies will be listed as mutliplied by the temperature to get
units of energy

Electronic entropy                ...      0.00000000 Eh      0.00 kcal/mol
Vibrational entropy               ...      0.00019346 Eh      0.12 kcal/mol
Rotational entropy                ...      0.00689849 Eh      4.33 kcal/mol
Translational entropy             ...      0.01859962 Eh     11.67 kcal/mol
-----------------------------------------------------------------------
Final entropy term                ...      0.02569157 Eh     16.12 kcal/mol

In case the symmetry of your molecule has not been determined correctly
or in case you have a reason to use a different symmetry number we print
out the resulting rotational entropy values for sn=1,12 :
 --------------------------------------------------------
|  sn= 1 | S(rot)=             -inf Eh      -inf kcal/mol|
|  sn= 2 | S(rot)=             -inf Eh      -inf kcal/mol|
|  sn= 3 | S(rot)=             -inf Eh      -inf kcal/mol|
|  sn= 4 | S(rot)=             -inf Eh      -inf kcal/mol|
|  sn= 5 | S(rot)=             -inf Eh      -inf kcal/mol|
|  sn= 6 | S(rot)=             -inf Eh      -inf kcal/mol|
|  sn= 7 | S(rot)=             -inf Eh      -inf kcal/mol|
|  sn= 8 | S(rot)=             -inf Eh      -inf kcal/mol|
|  sn= 9 | S(rot)=             -inf Eh      -inf kcal/mol|
|  sn=10 | S(rot)=             -inf Eh      -inf kcal/mol|
|  sn=11 | S(rot)=             -inf Eh      -inf kcal/mol|
|  sn=12 | S(rot)=             -inf Eh      -inf kcal/mol|
 --------------------------------------------------------

-------------------
GIBBS FREE ENERGY
-------------------

The Gibbs free energy is G = H - T*S

Total enthalpy                    ...  -1740.33197845 Eh
Total entropy correction          ...     -0.02569157 Eh    -16.12 kcal/mol
-----------------------------------------------------------------------
Final Gibbs free energy         ...  -1740.35767002 Eh

For completeness - the Gibbs free energy minus the electronic energy
G-E(el)                           ...     -0.02081423 Eh    -13.06 kcal/mol

                             ****ORCA TERMINATED NORMALLY****
TOTAL RUN TIME: 0 days 0 hours 0 minutes 57 seconds 149 msec
