                         Program Version 4.2.0 -  RELEASE  -
|  1> #
|  2> # Cu01N0_H M06-D3/Def2-TZVPPD
|  3> #
|  4> ! m06 d3zero def2-tzvppd def2/jk grid4 nofinalgrid opt xyzfile numfreq
|  5>
|  6> *xyz 0 1
|  7> Cu       0.000000    0.000000    0.048513
|  8> H        0.000000    0.000000   -1.406870
|  9> *
| 10>
| 11> %maxcore 5000
| 12>
| 13> %pal
| 14> nprocs = 24
| 15> end
| 16>
| 17>
| 18>                          ****END OF INPUT****
 Total Charge           Charge          ....    0
 Multiplicity           Mult            ....    1
 Number of Electrons    NEL             ....   30
Dispersion correction           -0.000000121
FINAL SINGLE POINT ENERGY     -1641.053187421669
Dispersion correction            ... done
Dispersion correction           -0.000000122
FINAL SINGLE POINT ENERGY     -1641.053205088396
Dispersion correction            ... done
Dispersion correction           -0.000000128
FINAL SINGLE POINT ENERGY     -1641.053276621564
Dispersion correction            ... done
                    ***********************HURRAY********************

CARTESIAN COORDINATES (ANGSTROEM)
---------------------------------
  Cu     0.000000    0.000000    0.053254
  H      0.000000    0.000000   -1.411611

 Multiplicity           Mult            ....    1
 Number of Electrons    NEL             ....   30
 Basis Dimension        Dim             ....   84

ORBITAL ENERGIES
----------------

  NO   OCC          E(Eh)            E(eV)
   0   2.0000    -323.282556     -8796.9656
   1   2.0000     -39.062934     -1062.9565
   2   2.0000     -34.177031      -930.0043
   3   2.0000     -34.174247      -929.9285
   4   2.0000     -34.174247      -929.9285
   5   2.0000      -4.405453      -119.8785
   6   2.0000      -2.863446       -77.9183
   7   2.0000      -2.855957       -77.7145
   8   2.0000      -2.855957       -77.7145
   9   2.0000      -0.351805        -9.5731
  10   2.0000      -0.308689        -8.3998
  11   2.0000      -0.308689        -8.3998
  12   2.0000      -0.302666        -8.2360
  13   2.0000      -0.302666        -8.2360
  14   2.0000      -0.256980        -6.9928
  15   0.0000      -0.076261        -2.0752
  16   0.0000      -0.022745        -0.6189
  17   0.0000      -0.022745        -0.6189
  18   0.0000       0.028017         0.7624
  19   0.0000       0.032684         0.8894

MULLIKEN ATOMIC CHARGES
-----------------------
   0 Cu:   -0.401100
   1 H :    0.401100
Sum of atomic charges:   -0.0000000

LOEWDIN ATOMIC CHARGES
----------------------
   0 Cu:    0.252925
   1 H :   -0.252925

  Mayer bond orders larger than 0.100000
B(  0-Cu,  1-H ) :   0.7645

Dispersion correction           -0.000000128
FINAL SINGLE POINT ENERGY     -1641.053277913662

DIPOLE MOMENT
-------------
                                X             Y             Z
Electronic contribution:     -0.00000      -0.00000       2.44858
Nuclear contribution   :      0.00000       0.00000      -1.47153
                        -----------------------------------------
Total Dipole Moment    :     -0.00000      -0.00000       0.97705
                        -----------------------------------------
Magnitude (a.u.)       :      0.97705
Magnitude (Debye)      :      2.48347

VIBRATIONAL FREQUENCIES
-----------------------

Scaling factor for frequencies =  1.000000000 (already applied!)

   0:         0.00 cm**-1
   1:         0.00 cm**-1
   2:         0.00 cm**-1
   3:         0.00 cm**-1
   4:         0.00 cm**-1
   5:      1991.51 cm**-1

IR SPECTRUM
-----------

 Mode    freq (cm**-1)   T**2         TX         TY         TZ
-------------------------------------------------------------------
   5:      1991.51   46.821997  ( -0.000040   0.000157   6.842660)

--------------------------
THERMOCHEMISTRY AT 298.15K
--------------------------

Temperature         ... 298.15 K
Pressure            ... 1.00 atm
Total Mass          ... 64.56 AMU
The molecule is recognized as being linear

Throughout the following assumptions are being made:
  (1) The electronic state is orbitally nondegenerate
  (2) There are no thermally accessible electronically excited states
  (3) Hindered rotations indicated by low frequency modes are not
      treated as such but are treated as vibrations and this may
      cause some error
  (4) All equations used are the standard statistical mechanics
      equations for an ideal gas
  (5) All vibrations are strictly harmonic

freq.    1991.51  E(vib)   ...       0.00

------------
INNER ENERGY
------------

The inner energy is: U= E(el) + E(ZPE) + E(vib) + E(rot) + E(trans)
    E(el)   - is the total energy from the electronic structure calculation
              = E(kin-el) + E(nuc-el) + E(el-el) + E(nuc-nuc)
    E(ZPE)  - the the zero temperature vibrational energy from the frequency calculation
    E(vib)  - the the finite temperature correction to E(ZPE) due to population
              of excited vibrational states
    E(rot)  - is the rotational thermal energy
    E(trans)- is the translational thermal energy

Summary of contributions to the inner energy U:
Electronic energy                ...  -1641.05327791 Eh
Zero point energy                ...      0.00453698 Eh       2.85 kcal/mol
Thermal vibrational correction   ...      0.00000061 Eh       0.00 kcal/mol
Thermal rotational correction    ...      0.00094418 Eh       0.59 kcal/mol
Thermal translational correction ...      0.00141627 Eh       0.89 kcal/mol
-----------------------------------------------------------------------
Total thermal energy                  -1641.04637987 Eh

Summary of corrections to the electronic energy:
(perhaps to be used in another calculation)
Total thermal correction                  0.00236106 Eh       1.48 kcal/mol
Non-thermal (ZPE) correction              0.00453698 Eh       2.85 kcal/mol
-----------------------------------------------------------------------
Total correction                          0.00689804 Eh       4.33 kcal/mol

--------
ENTHALPY
--------

The enthalpy is H = U + kB*T
                kB is Boltzmann's constant
Total free energy                 ...  -1641.04637987 Eh
Thermal Enthalpy correction       ...      0.00094421 Eh       0.59 kcal/mol
-----------------------------------------------------------------------
Total Enthalpy                    ...  -1641.04543566 Eh

Note: Rotational entropy computed according to Herzberg
Infrared and Raman Spectra, Chapter V,1, Van Nostrand Reinhold, 1945
Point Group:  Cinfv, Symmetry Number:   1
Rotational constants in cm-1:     0.000000     7.917285     7.917285

Vibrational entropy computed according to the QRRHO of S. Grimme
Chem.Eur.J. 2012 18 9955

-------
ENTROPY
-------

The entropy contributions are T*S = T*(S(el)+S(vib)+S(rot)+S(trans))
     S(el)   - electronic entropy
     S(vib)  - vibrational entropy
     S(rot)  - rotational entropy
     S(trans)- translational entropy
The entropies will be listed as mutliplied by the temperature to get
units of energy

Electronic entropy                ...      0.00000000 Eh      0.00 kcal/mol
Vibrational entropy               ...      0.00000067 Eh      0.00 kcal/mol
Rotational entropy                ...      0.00402671 Eh      2.53 kcal/mol
Translational entropy             ...      0.01825147 Eh     11.45 kcal/mol
-----------------------------------------------------------------------
Final entropy term                ...      0.02227885 Eh     13.98 kcal/mol

In case the symmetry of your molecule has not been determined correctly
or in case you have a reason to use a different symmetry number we print
out the resulting rotational entropy values for sn=1,12 :
 --------------------------------------------------------
|  sn= 1 | S(rot)=             -inf Eh      -inf kcal/mol|
|  sn= 2 | S(rot)=             -inf Eh      -inf kcal/mol|
|  sn= 3 | S(rot)=             -inf Eh      -inf kcal/mol|
|  sn= 4 | S(rot)=             -inf Eh      -inf kcal/mol|
|  sn= 5 | S(rot)=             -inf Eh      -inf kcal/mol|
|  sn= 6 | S(rot)=             -inf Eh      -inf kcal/mol|
|  sn= 7 | S(rot)=             -inf Eh      -inf kcal/mol|
|  sn= 8 | S(rot)=             -inf Eh      -inf kcal/mol|
|  sn= 9 | S(rot)=             -inf Eh      -inf kcal/mol|
|  sn=10 | S(rot)=             -inf Eh      -inf kcal/mol|
|  sn=11 | S(rot)=             -inf Eh      -inf kcal/mol|
|  sn=12 | S(rot)=             -inf Eh      -inf kcal/mol|
 --------------------------------------------------------

-------------------
GIBBS FREE ENERGY
-------------------

The Gibbs free energy is G = H - T*S

Total enthalpy                    ...  -1641.04543566 Eh
Total entropy correction          ...     -0.02227885 Eh    -13.98 kcal/mol
-----------------------------------------------------------------------
Final Gibbs free energy         ...  -1641.06771451 Eh

For completeness - the Gibbs free energy minus the electronic energy
G-E(el)                           ...     -0.01443660 Eh     -9.06 kcal/mol

                             ****ORCA TERMINATED NORMALLY****
TOTAL RUN TIME: 0 days 0 hours 1 minutes 19 seconds 568 msec
