                         Program Version 4.2.0 -  RELEASE  -
|  1> #
|  2> # Cu02N0 M06-D3/Def2-TZVPPD
|  3> #
|  4> ! m06 d3zero def2-tzvppd def2/jk grid4 nofinalgrid opt xyzfile numfreq
|  5>
|  6> *xyz 0 1
|  7> Cu       0.000000    0.000000    1.107490
|  8> Cu       0.000000    0.000000   -1.107490
|  9> *
| 10>
| 11> %maxcore 5000
| 12>
| 13> %pal
| 14> nprocs = 24
| 15> end
| 16>
| 17>
| 18>                          ****END OF INPUT****
 Total Charge           Charge          ....    0
 Multiplicity           Mult            ....    1
 Number of Electrons    NEL             ....   58
Dispersion correction           -0.000000403
FINAL SINGLE POINT ENERGY     -3280.983464076090
Dispersion correction            ... done
Dispersion correction           -0.000000404
FINAL SINGLE POINT ENERGY     -3280.983474353862
Dispersion correction            ... done
Dispersion correction           -0.000000435
FINAL SINGLE POINT ENERGY     -3280.983711284770
Dispersion correction            ... done
Dispersion correction           -0.000000437
FINAL SINGLE POINT ENERGY     -3280.983717802239
Dispersion correction            ... done
                    ***********************HURRAY********************

CARTESIAN COORDINATES (ANGSTROEM)
---------------------------------
  Cu     0.000000    0.000000    1.118729
  Cu     0.000000    0.000000   -1.118729

 Multiplicity           Mult            ....    1
 Number of Electrons    NEL             ....   58
 Basis Dimension        Dim             ....  134

ORBITAL ENERGIES
----------------

  NO   OCC          E(Eh)            E(eV)
   0   2.0000    -323.255695     -8796.2346
   1   2.0000    -323.255686     -8796.2344
   2   2.0000     -39.033339     -1062.1512
   3   2.0000     -39.033310     -1062.1504
   4   2.0000     -34.146357      -929.1696
   5   2.0000     -34.146353      -929.1695
   6   2.0000     -34.145655      -929.1505
   7   2.0000     -34.145655      -929.1505
   8   2.0000     -34.145649      -929.1504
   9   2.0000     -34.145649      -929.1504
  10   2.0000      -4.378435      -119.1433
  11   2.0000      -4.377856      -119.1275
  12   2.0000      -2.836486       -77.1847
  13   2.0000      -2.831463       -77.0480
  14   2.0000      -2.830772       -77.0292
  15   2.0000      -2.830772       -77.0292
  16   2.0000      -2.830347       -77.0177
  17   2.0000      -2.830347       -77.0177
  18   2.0000      -0.312321        -8.4987
  19   2.0000      -0.299594        -8.1524
  20   2.0000      -0.299594        -8.1524
  21   2.0000      -0.283163        -7.7053
  22   2.0000      -0.283148        -7.7048
  23   2.0000      -0.275599        -7.4994
  24   2.0000      -0.275584        -7.4990
  25   2.0000      -0.266402        -7.2492
  26   2.0000      -0.266402        -7.2492
  27   2.0000      -0.262560        -7.1446
  28   2.0000      -0.225691        -6.1414
  29   0.0000      -0.091317        -2.4849
  30   0.0000      -0.029901        -0.8136
  31   0.0000      -0.029901        -0.8136
  32   0.0000      -0.013131        -0.3573
  33   0.0000       0.008619         0.2345

MULLIKEN ATOMIC CHARGES
-----------------------
   0 Cu:   -0.000000
   1 Cu:    0.000000
Sum of atomic charges:    0.0000000

LOEWDIN ATOMIC CHARGES
----------------------
   0 Cu:   -0.000000
   1 Cu:    0.000000

  Mayer bond orders larger than 0.100000
B(  0-Cu,  1-Cu) :   1.0727

Dispersion correction           -0.000000437
FINAL SINGLE POINT ENERGY     -3280.983718063348

DIPOLE MOMENT
-------------
                                X             Y             Z
Electronic contribution:     -0.00000       0.00000       0.00000
Nuclear contribution   :      0.00000       0.00000       0.00000
                        -----------------------------------------
Total Dipole Moment    :     -0.00000       0.00000       0.00000
                        -----------------------------------------
Magnitude (a.u.)       :      0.00000
Magnitude (Debye)      :      0.00000

VIBRATIONAL FREQUENCIES
-----------------------

Scaling factor for frequencies =  1.000000000 (already applied!)

   0:         0.00 cm**-1
   1:         0.00 cm**-1
   2:         0.00 cm**-1
   3:         0.00 cm**-1
   4:         0.00 cm**-1
   5:       274.02 cm**-1

IR SPECTRUM
-----------

 Mode    freq (cm**-1)   T**2         TX         TY         TZ
-------------------------------------------------------------------
   5:       274.02    0.000000  (  0.000116   0.000044  -0.000053)

--------------------------
THERMOCHEMISTRY AT 298.15K
--------------------------

Temperature         ... 298.15 K
Pressure            ... 1.00 atm
Total Mass          ... 127.10 AMU
The molecule is recognized as being linear

Throughout the following assumptions are being made:
  (1) The electronic state is orbitally nondegenerate
  (2) There are no thermally accessible electronically excited states
  (3) Hindered rotations indicated by low frequency modes are not
      treated as such but are treated as vibrations and this may
      cause some error
  (4) All equations used are the standard statistical mechanics
      equations for an ideal gas
  (5) All vibrations are strictly harmonic

freq.     274.02  E(vib)   ...       0.28

------------
INNER ENERGY
------------

The inner energy is: U= E(el) + E(ZPE) + E(vib) + E(rot) + E(trans)
    E(el)   - is the total energy from the electronic structure calculation
              = E(kin-el) + E(nuc-el) + E(el-el) + E(nuc-nuc)
    E(ZPE)  - the the zero temperature vibrational energy from the frequency calculation
    E(vib)  - the the finite temperature correction to E(ZPE) due to population
              of excited vibrational states
    E(rot)  - is the rotational thermal energy
    E(trans)- is the translational thermal energy

Summary of contributions to the inner energy U:
Electronic energy                ...  -3280.98371806 Eh
Zero point energy                ...      0.00062426 Eh       0.39 kcal/mol
Thermal vibrational correction   ...      0.00045368 Eh       0.28 kcal/mol
Thermal rotational correction    ...      0.00094418 Eh       0.59 kcal/mol
Thermal translational correction ...      0.00141627 Eh       0.89 kcal/mol
-----------------------------------------------------------------------
Total thermal energy                  -3280.98027968 Eh

Summary of corrections to the electronic energy:
(perhaps to be used in another calculation)
Total thermal correction                  0.00281413 Eh       1.77 kcal/mol
Non-thermal (ZPE) correction              0.00062426 Eh       0.39 kcal/mol
-----------------------------------------------------------------------
Total correction                          0.00343839 Eh       2.16 kcal/mol

--------
ENTHALPY
--------

The enthalpy is H = U + kB*T
                kB is Boltzmann's constant
Total free energy                 ...  -3280.98027968 Eh
Thermal Enthalpy correction       ...      0.00094421 Eh       0.59 kcal/mol
-----------------------------------------------------------------------
Total Enthalpy                    ...  -3280.97933547 Eh

Note: Rotational entropy computed according to Herzberg
Infrared and Raman Spectra, Chapter V,1, Van Nostrand Reinhold, 1945
Point Group:  Dinfh, Symmetry Number:   2
Rotational constants in cm-1:     0.000000     0.105975     0.105975

Vibrational entropy computed according to the QRRHO of S. Grimme
Chem.Eur.J. 2012 18 9955

-------
ENTROPY
-------

The entropy contributions are T*S = T*(S(el)+S(vib)+S(rot)+S(trans))
     S(el)   - electronic entropy
     S(vib)  - vibrational entropy
     S(rot)  - rotational entropy
     S(trans)- translational entropy
The entropies will be listed as mutliplied by the temperature to get
units of energy

Electronic entropy                ...      0.00000000 Eh      0.00 kcal/mol
Vibrational entropy               ...      0.00074866 Eh      0.47 kcal/mol
Rotational entropy                ...      0.00744507 Eh      4.67 kcal/mol
Translational entropy             ...      0.01921087 Eh     12.05 kcal/mol
-----------------------------------------------------------------------
Final entropy term                ...      0.02740461 Eh     17.20 kcal/mol

In case the symmetry of your molecule has not been determined correctly
or in case you have a reason to use a different symmetry number we print
out the resulting rotational entropy values for sn=1,12 :
 --------------------------------------------------------
|  sn= 1 | S(rot)=             -inf Eh      -inf kcal/mol|
|  sn= 2 | S(rot)=             -inf Eh      -inf kcal/mol|
|  sn= 3 | S(rot)=             -inf Eh      -inf kcal/mol|
|  sn= 4 | S(rot)=             -inf Eh      -inf kcal/mol|
|  sn= 5 | S(rot)=             -inf Eh      -inf kcal/mol|
|  sn= 6 | S(rot)=             -inf Eh      -inf kcal/mol|
|  sn= 7 | S(rot)=             -inf Eh      -inf kcal/mol|
|  sn= 8 | S(rot)=             -inf Eh      -inf kcal/mol|
|  sn= 9 | S(rot)=             -inf Eh      -inf kcal/mol|
|  sn=10 | S(rot)=             -inf Eh      -inf kcal/mol|
|  sn=11 | S(rot)=             -inf Eh      -inf kcal/mol|
|  sn=12 | S(rot)=             -inf Eh      -inf kcal/mol|
 --------------------------------------------------------

-------------------
GIBBS FREE ENERGY
-------------------

The Gibbs free energy is G = H - T*S

Total enthalpy                    ...  -3280.97933547 Eh
Total entropy correction          ...     -0.02740461 Eh    -17.20 kcal/mol
-----------------------------------------------------------------------
Final Gibbs free energy         ...  -3281.00674007 Eh

For completeness - the Gibbs free energy minus the electronic energy
G-E(el)                           ...     -0.02302201 Eh    -14.45 kcal/mol

                             ****ORCA TERMINATED NORMALLY****
TOTAL RUN TIME: 0 days 0 hours 1 minutes 30 seconds 835 msec
