                         Program Version 4.2.0 -  RELEASE  -
|  1> #
|  2> # Cu03C1_LIN M06-D3/Def2-TZVPPD
|  3> #
|  4> ! m06 d3zero def2-tzvppd def2/jk grid4 nofinalgrid opt xyzfile numfreq
|  5>
|  6> *xyz 1 1
|  7> Cu       0.000000    0.000000    0.000000
|  8> Cu       0.000000    0.000000    2.337165
|  9> Cu       0.000000    0.000000   -2.337165
| 10> *
| 11>
| 12> %maxcore 5000
| 13>
| 14> %pal
| 15> nprocs = 24
| 16> end
| 17>
| 18>
| 19>                          ****END OF INPUT****
 Total Charge           Charge          ....    1
 Multiplicity           Mult            ....    1
 Number of Electrons    NEL             ....   86
Dispersion correction           -0.000113331
FINAL SINGLE POINT ENERGY     -4921.203518326309
Dispersion correction            ... done
Dispersion correction           -0.000113206
FINAL SINGLE POINT ENERGY     -4921.203517316227
Dispersion correction            ... done
Dispersion correction           -0.000108463
FINAL SINGLE POINT ENERGY     -4921.203373293600
Dispersion correction            ... done
Dispersion correction           -0.000108770
FINAL SINGLE POINT ENERGY     -4921.203388889271
Dispersion correction            ... done
                    ***********************HURRAY********************

CARTESIAN COORDINATES (ANGSTROEM)
---------------------------------
  Cu    -0.000000   -0.000000   -0.000000
  Cu     0.000000    0.000000    2.314791
  Cu     0.000000    0.000000   -2.314791

 Multiplicity           Mult            ....    1
 Number of Electrons    NEL             ....   86
 Basis Dimension        Dim             ....  201

ORBITAL ENERGIES
----------------

  NO   OCC          E(Eh)            E(eV)
   0   2.0000    -323.480396     -8802.3491
   1   2.0000    -323.480393     -8802.3490
   2   2.0000    -323.442646     -8801.3219
   3   2.0000     -39.252042     -1068.1024
   4   2.0000     -39.252028     -1068.1020
   5   2.0000     -39.221395     -1067.2684
   6   2.0000     -34.365813      -935.1413
   7   2.0000     -34.365810      -935.1412
   8   2.0000     -34.365067      -935.1210
   9   2.0000     -34.365067      -935.1210
  10   2.0000     -34.365065      -935.1210
  11   2.0000     -34.365065      -935.1210
  12   2.0000     -34.335205      -934.3084
  13   2.0000     -34.333122      -934.2517
  14   2.0000     -34.333122      -934.2517
  15   2.0000      -4.600524      -125.1866
  16   2.0000      -4.600511      -125.1863
  17   2.0000      -4.565250      -124.2268
  18   2.0000      -3.057296       -83.1932
  19   2.0000      -3.057104       -83.1880
  20   2.0000      -3.054537       -83.1182
  21   2.0000      -3.054537       -83.1182
  22   2.0000      -3.054531       -83.1180
  23   2.0000      -3.054531       -83.1180
  24   2.0000      -3.023214       -82.2658
  25   2.0000      -3.016133       -82.0731
  26   2.0000      -3.016133       -82.0731
  27   2.0000      -0.534244       -14.5375
  28   2.0000      -0.515996       -14.0410
  29   2.0000      -0.515996       -14.0410
  30   2.0000      -0.509327       -13.8595
  31   2.0000      -0.507883       -13.8202
  32   2.0000      -0.507883       -13.8202
  33   2.0000      -0.504939       -13.7401
  34   2.0000      -0.504927       -13.7398
  35   2.0000      -0.504460       -13.7271
  36   2.0000      -0.504448       -13.7267
  37   2.0000      -0.462979       -12.5983
  38   2.0000      -0.462962       -12.5978
  39   2.0000      -0.461599       -12.5607
  40   2.0000      -0.460969       -12.5436
  41   2.0000      -0.460969       -12.5436
  42   2.0000      -0.423084       -11.5127
  43   0.0000      -0.335469        -9.1286
  44   0.0000      -0.232282        -6.3207
  45   0.0000      -0.201980        -5.4961
  46   0.0000      -0.201980        -5.4961
  47   0.0000      -0.171180        -4.6581

MULLIKEN ATOMIC CHARGES
-----------------------
   0 Cu:    0.016158
   1 Cu:    0.491922
   2 Cu:    0.491920
Sum of atomic charges:    1.0000000

LOEWDIN ATOMIC CHARGES
----------------------
   0 Cu:    0.151208
   1 Cu:    0.424396
   2 Cu:    0.424396

  Mayer bond orders larger than 0.100000
B(  0-Cu,  1-Cu) :   0.5564 B(  0-Cu,  2-Cu) :   0.5564 B(  1-Cu,  2-Cu) :   0.3078

Dispersion correction           -0.000108753
FINAL SINGLE POINT ENERGY     -4921.203388069995

DIPOLE MOMENT
-------------
                                X             Y             Z
Electronic contribution:      0.00000       0.00000      -0.00000
Nuclear contribution   :      0.00000      -0.00000       0.00000
                        -----------------------------------------
Total Dipole Moment    :      0.00000       0.00000      -0.00000
                        -----------------------------------------
Magnitude (a.u.)       :      0.00000
Magnitude (Debye)      :      0.00000

VIBRATIONAL FREQUENCIES
-----------------------

Scaling factor for frequencies =  1.000000000 (already applied!)

   0:         0.00 cm**-1
   1:         0.00 cm**-1
   2:         0.00 cm**-1
   3:         0.00 cm**-1
   4:         0.00 cm**-1
   5:       -76.55 cm**-1 ***imaginary mode***
   6:       -76.55 cm**-1 ***imaginary mode***
   7:       156.90 cm**-1
   8:       266.72 cm**-1

IR SPECTRUM
-----------

 Mode    freq (cm**-1)   T**2         TX         TY         TZ
-------------------------------------------------------------------
   7:       156.90    0.000000  ( -0.000024   0.000105  -0.000054)
   8:       266.72   29.405984  (  0.000001   0.000033  -5.422728)

--------------------------
THERMOCHEMISTRY AT 298.15K
--------------------------

Temperature         ... 298.15 K
Pressure            ... 1.00 atm
Total Mass          ... 190.65 AMU
The molecule is recognized as being linear

Throughout the following assumptions are being made:
  (1) The electronic state is orbitally nondegenerate
  (2) There are no thermally accessible electronically excited states
  (3) Hindered rotations indicated by low frequency modes are not
      treated as such but are treated as vibrations and this may
      cause some error
  (4) All equations used are the standard statistical mechanics
      equations for an ideal gas
  (5) All vibrations are strictly harmonic

freq.     156.90  E(vib)   ...       0.40
freq.     266.72  E(vib)   ...       0.29

------------
INNER ENERGY
------------

The inner energy is: U= E(el) + E(ZPE) + E(vib) + E(rot) + E(trans)
    E(el)   - is the total energy from the electronic structure calculation
              = E(kin-el) + E(nuc-el) + E(el-el) + E(nuc-nuc)
    E(ZPE)  - the the zero temperature vibrational energy from the frequency calculation
    E(vib)  - the the finite temperature correction to E(ZPE) due to population
              of excited vibrational states
    E(rot)  - is the rotational thermal energy
    E(trans)- is the translational thermal energy

Summary of contributions to the inner energy U:
Electronic energy                ...  -4921.20338807 Eh
Zero point energy                ...      0.00096509 Eh       0.61 kcal/mol
Thermal vibrational correction   ...      0.00109490 Eh       0.69 kcal/mol
Thermal rotational correction    ...      0.00094418 Eh       0.59 kcal/mol
Thermal translational correction ...      0.00141627 Eh       0.89 kcal/mol
-----------------------------------------------------------------------
Total thermal energy                  -4921.19896763 Eh

Summary of corrections to the electronic energy:
(perhaps to be used in another calculation)
Total thermal correction                  0.00345535 Eh       2.17 kcal/mol
Non-thermal (ZPE) correction              0.00096509 Eh       0.61 kcal/mol
-----------------------------------------------------------------------
Total correction                          0.00442044 Eh       2.77 kcal/mol

--------
ENTHALPY
--------

The enthalpy is H = U + kB*T
                kB is Boltzmann's constant
Total free energy                 ...  -4921.19896763 Eh
Thermal Enthalpy correction       ...      0.00094421 Eh       0.59 kcal/mol
-----------------------------------------------------------------------
Total Enthalpy                    ...  -4921.19802343 Eh

Note: Rotational entropy computed according to Herzberg
Infrared and Raman Spectra, Chapter V,1, Van Nostrand Reinhold, 1945
Point Group:  Dinfh, Symmetry Number:   2
Rotational constants in cm-1:     0.000000     0.024753     0.024753

Vibrational entropy computed according to the QRRHO of S. Grimme
Chem.Eur.J. 2012 18 9955

-------
ENTROPY
-------

The entropy contributions are T*S = T*(S(el)+S(vib)+S(rot)+S(trans))
     S(el)   - electronic entropy
     S(vib)  - vibrational entropy
     S(rot)  - rotational entropy
     S(trans)- translational entropy
The entropies will be listed as mutliplied by the temperature to get
units of energy

Electronic entropy                ...      0.00000000 Eh      0.00 kcal/mol
Vibrational entropy               ...      0.00198793 Eh      1.25 kcal/mol
Rotational entropy                ...      0.00881815 Eh      5.53 kcal/mol
Translational entropy             ...      0.01978512 Eh     12.42 kcal/mol
-----------------------------------------------------------------------
Final entropy term                ...      0.03059120 Eh     19.20 kcal/mol

In case the symmetry of your molecule has not been determined correctly
or in case you have a reason to use a different symmetry number we print
out the resulting rotational entropy values for sn=1,12 :
 --------------------------------------------------------
|  sn= 1 | S(rot)=      -0.00228190 Eh     -1.43 kcal/mol|
|  sn= 2 | S(rot)=      -0.00293636 Eh     -1.84 kcal/mol|
|  sn= 3 | S(rot)=      -0.00331919 Eh     -2.08 kcal/mol|
|  sn= 4 | S(rot)=      -0.00359082 Eh     -2.25 kcal/mol|
|  sn= 5 | S(rot)=      -0.00380150 Eh     -2.39 kcal/mol|
|  sn= 6 | S(rot)=      -0.00397365 Eh     -2.49 kcal/mol|
|  sn= 7 | S(rot)=      -0.00411919 Eh     -2.58 kcal/mol|
|  sn= 8 | S(rot)=      -0.00424527 Eh     -2.66 kcal/mol|
|  sn= 9 | S(rot)=      -0.00435648 Eh     -2.73 kcal/mol|
|  sn=10 | S(rot)=      -0.00445596 Eh     -2.80 kcal/mol|
|  sn=11 | S(rot)=      -0.00454595 Eh     -2.85 kcal/mol|
|  sn=12 | S(rot)=      -0.00462810 Eh     -2.90 kcal/mol|
 --------------------------------------------------------

-------------------
GIBBS FREE ENERGY
-------------------

The Gibbs free energy is G = H - T*S

Total enthalpy                    ...  -4921.19802343 Eh
Total entropy correction          ...     -0.03059120 Eh    -19.20 kcal/mol
-----------------------------------------------------------------------
Final Gibbs free energy         ...  -4921.22861462 Eh

For completeness - the Gibbs free energy minus the electronic energy
G-E(el)                           ...     -0.02522655 Eh    -15.83 kcal/mol

                             ****ORCA TERMINATED NORMALLY****
TOTAL RUN TIME: 0 days 0 hours 3 minutes 53 seconds 906 msec
