                         Program Version 4.2.0 -  RELEASE  -
|  1> #
|  2> # Cu03N0_D3H M06-D3/Def2-TZVPPD
|  3> #
|  4> ! m06 d3zero def2-tzvppd def2/jk grid4 nofinalgrid opt xyzfile numfreq
|  5>
|  6> *xyz 0 2
|  7> Cu       0.000000    1.346828   -0.000000
|  8> Cu       1.166387   -0.673414   -0.000000
|  9> Cu      -1.166387   -0.673414   -0.000000
| 10> *
| 11>
| 12> %maxcore 5000
| 13>
| 14> %pal
| 15> nprocs = 24
| 16> end
| 17>
| 18>
| 19>                          ****END OF INPUT****
 Total Charge           Charge          ....    0
 Multiplicity           Mult            ....    2
 Number of Electrons    NEL             ....   87
Dispersion correction           -0.000001798
FINAL SINGLE POINT ENERGY     -4921.476118530584
Dispersion correction            ... done
Dispersion correction           -0.000001805
FINAL SINGLE POINT ENERGY     -4921.476262245134
Dispersion correction            ... done
Dispersion correction           -0.000002097
FINAL SINGLE POINT ENERGY     -4921.478835406383
Dispersion correction            ... done
FINAL SINGLE POINT ENERGY     -4921.478877925084
FINAL SINGLE POINT ENERGY     -4921.478885813567
FINAL SINGLE POINT ENERGY     -4921.478956827196
FINAL SINGLE POINT ENERGY     -4921.479033741364
Dispersion correction            ... done
Dispersion correction           -0.000002299
FINAL SINGLE POINT ENERGY     -4921.479096419088
Dispersion correction            ... done
Dispersion correction           -0.000002293
FINAL SINGLE POINT ENERGY     -4921.479110875293
Dispersion correction            ... done
                    ***********************HURRAY********************

CARTESIAN COORDINATES (ANGSTROEM)
---------------------------------
  Cu     0.000002    1.454846    0.000000
  Cu     1.130666   -0.727421    0.000000
  Cu    -1.130669   -0.727425    0.000000

 Multiplicity           Mult            ....    2
 Number of Electrons    NEL             ....   87
 Basis Dimension        Dim             ....  201

ORBITAL ENERGIES
----------------
                 SPIN UP ORBITALS
  NO   OCC          E(Eh)            E(eV)
   0   1.0000    -323.275714     -8796.7794
   1   1.0000    -323.275708     -8796.7792
   2   1.0000    -323.257027     -8796.2709
   3   1.0000     -39.053689     -1062.7049
   4   1.0000     -39.053669     -1062.7044
   5   1.0000     -39.036350     -1062.2331
   6   1.0000     -34.166736      -929.7241
   7   1.0000     -34.166732      -929.7241
   8   1.0000     -34.166191      -929.7093
   9   1.0000     -34.166183      -929.7091
  10   1.0000     -34.165736      -929.6969
  11   1.0000     -34.165731      -929.6968
  12   1.0000     -34.149438      -929.2534
  13   1.0000     -34.149043      -929.2427
  14   1.0000     -34.147505      -929.2008
  15   1.0000      -4.398641      -119.6931
  16   1.0000      -4.398129      -119.6792
  17   1.0000      -4.379607      -119.1752
  18   1.0000      -2.856479       -77.7287
  19   1.0000      -2.852166       -77.6114
  20   1.0000      -2.851473       -77.5925
  21   1.0000      -2.850867       -77.5760
  22   1.0000      -2.850573       -77.5680
  23   1.0000      -2.850200       -77.5579
  24   1.0000      -2.834043       -77.1182
  25   1.0000      -2.833003       -77.0899
  26   1.0000      -2.830170       -77.0128
  27   1.0000      -0.339657        -9.2425
  28   1.0000      -0.327454        -8.9105
  29   1.0000      -0.320904        -8.7323
  30   1.0000      -0.309557        -8.4235
  31   1.0000      -0.308045        -8.3823
  32   1.0000      -0.307178        -8.3587
  33   1.0000      -0.298915        -8.1339
  34   1.0000      -0.289302        -7.8723
  35   1.0000      -0.286488        -7.7957
  36   1.0000      -0.286409        -7.7936
  37   1.0000      -0.279683        -7.6106
  38   1.0000      -0.278383        -7.5752
  39   1.0000      -0.276991        -7.5373
  40   1.0000      -0.274976        -7.4825
  41   1.0000      -0.266558        -7.2534
  42   1.0000      -0.265299        -7.2191
  43   1.0000      -0.153592        -4.1794
  44   0.0000      -0.106687        -2.9031
  45   0.0000      -0.049449        -1.3456
  46   0.0000      -0.028305        -0.7702
  47   0.0000      -0.013688        -0.3725
  48   0.0000      -0.008070        -0.2196

                 SPIN DOWN ORBITALS
  NO   OCC          E(Eh)            E(eV)
   0   1.0000    -323.275452     -8796.7723
   1   1.0000    -323.275446     -8796.7721
   2   1.0000    -323.256104     -8796.2458
   3   1.0000     -39.053339     -1062.6954
   4   1.0000     -39.053319     -1062.6948
   5   1.0000     -39.035531     -1062.2108
   6   1.0000     -34.166438      -929.7160
   7   1.0000     -34.166433      -929.7159
   8   1.0000     -34.165594      -929.6931
   9   1.0000     -34.165587      -929.6929
  10   1.0000     -34.165566      -929.6923
  11   1.0000     -34.165561      -929.6922
  12   1.0000     -34.148473      -929.2272
  13   1.0000     -34.148459      -929.2268
  14   1.0000     -34.146993      -929.1869
  15   1.0000      -4.397847      -119.6715
  16   1.0000      -4.397326      -119.6573
  17   1.0000      -4.377392      -119.1149
  18   1.0000      -2.855770       -77.7095
  19   1.0000      -2.851377       -77.5899
  20   1.0000      -2.850422       -77.5639
  21   1.0000      -2.850150       -77.5565
  22   1.0000      -2.849871       -77.5489
  23   1.0000      -2.849773       -77.5463
  24   1.0000      -2.832298       -77.0707
  25   1.0000      -2.831399       -77.0463
  26   1.0000      -2.828715       -76.9732
  27   1.0000      -0.336881        -9.1670
  28   1.0000      -0.325905        -8.8683
  29   1.0000      -0.320309        -8.7160
  30   1.0000      -0.306803        -8.3485
  31   1.0000      -0.306289        -8.3346
  32   1.0000      -0.306071        -8.3286
  33   1.0000      -0.298042        -8.1101
  34   1.0000      -0.288001        -7.8369
  35   1.0000      -0.285925        -7.7804
  36   1.0000      -0.285190        -7.7604
  37   1.0000      -0.276741        -7.5305
  38   1.0000      -0.275561        -7.4984
  39   1.0000      -0.275200        -7.4886
  40   1.0000      -0.272981        -7.4282
  41   1.0000      -0.263483        -7.1697
  42   1.0000      -0.258497        -7.0341
  43   0.0000      -0.100897        -2.7455
  44   0.0000      -0.090860        -2.4724
  45   0.0000      -0.043353        -1.1797
  46   0.0000      -0.017110        -0.4656
  47   0.0000       0.007053         0.1919

MULLIKEN ATOMIC CHARGES AND SPIN POPULATIONS
--------------------------------------------
   0 Cu:    0.057484    0.579869
   1 Cu:   -0.028748    0.210059
   2 Cu:   -0.028736    0.210072
Sum of atomic charges         :    0.0000000

LOEWDIN ATOMIC CHARGES AND SPIN POPULATIONS
-------------------------------------------
   0 Cu:   -0.014633    0.415308
   1 Cu:    0.007317    0.292344
   2 Cu:    0.007317    0.292348

  Mayer bond orders larger than 0.100000
B(  0-Cu,  1-Cu) :   0.3982 B(  0-Cu,  2-Cu) :   0.3982 B(  1-Cu,  2-Cu) :   0.9136

Dispersion correction           -0.000002288
FINAL SINGLE POINT ENERGY     -4921.479110247179

DIPOLE MOMENT
-------------
                                X             Y             Z
Electronic contribution:      0.00001      -0.34103       0.00000
Nuclear contribution   :      0.00000       0.00000       0.00000
                        -----------------------------------------
Total Dipole Moment    :      0.00001      -0.34103       0.00000
                        -----------------------------------------
Magnitude (a.u.)       :      0.34103
Magnitude (Debye)      :      0.86683

VIBRATIONAL FREQUENCIES
-----------------------

Scaling factor for frequencies =  1.000000000 (already applied!)

   0:         0.00 cm**-1
   1:         0.00 cm**-1
   2:         0.00 cm**-1
   3:         0.00 cm**-1
   4:         0.00 cm**-1
   5:         0.00 cm**-1
   6:      -145.63 cm**-1 ***imaginary mode***
   7:       178.48 cm**-1
   8:       271.71 cm**-1

IR SPECTRUM
-----------

 Mode    freq (cm**-1)   T**2         TX         TY         TZ
-------------------------------------------------------------------
   7:       178.48    0.208641  (  0.000030  -0.456772   0.000026)
   8:       271.71    0.380027  (  0.000138  -0.616463  -0.000037)

--------------------------
THERMOCHEMISTRY AT 298.15K
--------------------------

Temperature         ... 298.15 K
Pressure            ... 1.00 atm
Total Mass          ... 190.65 AMU

Throughout the following assumptions are being made:
  (1) The electronic state is orbitally nondegenerate
      but the spin degeneracy is treated
  (2) There are no thermally accessible electronically excited states
  (3) Hindered rotations indicated by low frequency modes are not
      treated as such but are treated as vibrations and this may
      cause some error
  (4) All equations used are the standard statistical mechanics
      equations for an ideal gas
  (5) All vibrations are strictly harmonic

freq.     178.48  E(vib)   ...       0.37
freq.     271.71  E(vib)   ...       0.29

------------
INNER ENERGY
------------

The inner energy is: U= E(el) + E(ZPE) + E(vib) + E(rot) + E(trans)
    E(el)   - is the total energy from the electronic structure calculation
              = E(kin-el) + E(nuc-el) + E(el-el) + E(nuc-nuc)
    E(ZPE)  - the the zero temperature vibrational energy from the frequency calculation
    E(vib)  - the the finite temperature correction to E(ZPE) due to population
              of excited vibrational states
    E(rot)  - is the rotational thermal energy
    E(trans)- is the translational thermal energy

Summary of contributions to the inner energy U:
Electronic energy                ...  -4921.47911024 Eh
Zero point energy                ...      0.00102562 Eh       0.64 kcal/mol
Thermal vibrational correction   ...      0.00105200 Eh       0.66 kcal/mol
Thermal rotational correction    ...      0.00141627 Eh       0.89 kcal/mol
Thermal translational correction ...      0.00141627 Eh       0.89 kcal/mol
-----------------------------------------------------------------------
Total thermal energy                  -4921.47420008 Eh

Summary of corrections to the electronic energy:
(perhaps to be used in another calculation)
Total thermal correction                  0.00388454 Eh       2.44 kcal/mol
Non-thermal (ZPE) correction              0.00102562 Eh       0.64 kcal/mol
-----------------------------------------------------------------------
Total correction                          0.00491017 Eh       3.08 kcal/mol

--------
ENTHALPY
--------

The enthalpy is H = U + kB*T
                kB is Boltzmann's constant
Total free energy                 ...  -4921.47420008 Eh
Thermal Enthalpy correction       ...      0.00094421 Eh       0.59 kcal/mol
-----------------------------------------------------------------------
Total Enthalpy                    ...  -4921.47325587 Eh

Note: Rotational entropy computed according to Herzberg
Infrared and Raman Spectra, Chapter V,1, Van Nostrand Reinhold, 1945
Point Group:  Cs, Symmetry Number:   1
Rotational constants in cm-1:     0.103748     0.083552     0.046281

Vibrational entropy computed according to the QRRHO of S. Grimme
Chem.Eur.J. 2012 18 9955

-------
ENTROPY
-------

The entropy contributions are T*S = T*(S(el)+S(vib)+S(rot)+S(trans))
     S(el)   - electronic entropy
     S(vib)  - vibrational entropy
     S(rot)  - rotational entropy
     S(trans)- translational entropy
The entropies will be listed as mutliplied by the temperature to get
units of energy

Electronic entropy                ...      0.00065446 Eh      0.41 kcal/mol
Vibrational entropy               ...      0.00186668 Eh      1.17 kcal/mol
Rotational entropy                ...      0.01320308 Eh      8.29 kcal/mol
Translational entropy             ...      0.01978512 Eh     12.42 kcal/mol
-----------------------------------------------------------------------
Final entropy term                ...      0.03550934 Eh     22.28 kcal/mol

In case the symmetry of your molecule has not been determined correctly
or in case you have a reason to use a different symmetry number we print
out the resulting rotational entropy values for sn=1,12 :
 --------------------------------------------------------
|  sn= 1 | S(rot)=       0.01320308 Eh      8.29 kcal/mol|
|  sn= 2 | S(rot)=       0.01254862 Eh      7.87 kcal/mol|
|  sn= 3 | S(rot)=       0.01216579 Eh      7.63 kcal/mol|
|  sn= 4 | S(rot)=       0.01189417 Eh      7.46 kcal/mol|
|  sn= 5 | S(rot)=       0.01168348 Eh      7.33 kcal/mol|
|  sn= 6 | S(rot)=       0.01151133 Eh      7.22 kcal/mol|
|  sn= 7 | S(rot)=       0.01136579 Eh      7.13 kcal/mol|
|  sn= 8 | S(rot)=       0.01123971 Eh      7.05 kcal/mol|
|  sn= 9 | S(rot)=       0.01112850 Eh      6.98 kcal/mol|
|  sn=10 | S(rot)=       0.01102902 Eh      6.92 kcal/mol|
|  sn=11 | S(rot)=       0.01093903 Eh      6.86 kcal/mol|
|  sn=12 | S(rot)=       0.01085688 Eh      6.81 kcal/mol|
 --------------------------------------------------------

-------------------
GIBBS FREE ENERGY
-------------------

The Gibbs free energy is G = H - T*S

Total enthalpy                    ...  -4921.47325587 Eh
Total entropy correction          ...     -0.03550934 Eh    -22.28 kcal/mol
-----------------------------------------------------------------------
Final Gibbs free energy         ...  -4921.50876520 Eh

For completeness - the Gibbs free energy minus the electronic energy
G-E(el)                           ...     -0.02965496 Eh    -18.61 kcal/mol

                             ****ORCA TERMINATED NORMALLY****
TOTAL RUN TIME: 0 days 0 hours 7 minutes 38 seconds 138 msec
