                         Program Version 4.2.0 -  RELEASE  -
|  1> #
|  2> # Cu03N0_LIN M06-D3/Def2-TZVPPD
|  3> #
|  4> ! m06 d3zero def2-tzvppd def2/jk grid4 nofinalgrid opt xyzfile numfreq
|  5>
|  6> *xyz 0 2
|  7> Cu       0.000000    0.000000    0.000000
|  8> Cu       0.000000    0.000000    2.291099
|  9> Cu       0.000000    0.000000   -2.291099
| 10> *
| 11>
| 12> %maxcore 5000
| 13>
| 14> %pal
| 15> nprocs = 24
| 16> end
| 17>
| 18>
| 19>                          ****END OF INPUT****
 Total Charge           Charge          ....    0
 Multiplicity           Mult            ....    2
 Number of Electrons    NEL             ....   87
Dispersion correction           -0.000103704
FINAL SINGLE POINT ENERGY     -4921.475741931736
Dispersion correction            ... done
Dispersion correction           -0.000103777
FINAL SINGLE POINT ENERGY     -4921.475747060953
Dispersion correction            ... done
Dispersion correction           -0.000105524
FINAL SINGLE POINT ENERGY     -4921.475853084956
Dispersion correction            ... done
Dispersion correction           -0.000106156
FINAL SINGLE POINT ENERGY     -4921.475883458924
Dispersion correction            ... done
                    ***********************HURRAY********************

CARTESIAN COORDINATES (ANGSTROEM)
---------------------------------
  Cu     0.000000   -0.000000   -0.000000
  Cu    -0.000000    0.000000    2.302543
  Cu    -0.000000    0.000000   -2.302543

 Multiplicity           Mult            ....    2
 Number of Electrons    NEL             ....   87
 Basis Dimension        Dim             ....  201

ORBITAL ENERGIES
----------------
                 SPIN UP ORBITALS
  NO   OCC          E(Eh)            E(eV)
   0   1.0000    -323.265970     -8796.5142
   1   1.0000    -323.265966     -8796.5141
   2   1.0000    -323.255390     -8796.2264
   3   1.0000     -39.042467     -1062.3995
   4   1.0000     -39.042452     -1062.3991
   5   1.0000     -39.034803     -1062.1910
   6   1.0000     -34.155738      -929.4249
   7   1.0000     -34.155736      -929.4248
   8   1.0000     -34.154733      -929.3975
   9   1.0000     -34.154733      -929.3975
  10   1.0000     -34.154731      -929.3975
  11   1.0000     -34.154731      -929.3975
  12   1.0000     -34.148155      -929.2185
  13   1.0000     -34.146744      -929.1802
  14   1.0000     -34.146744      -929.1802
  15   1.0000      -4.387874      -119.4001
  16   1.0000      -4.387869      -119.4000
  17   1.0000      -4.377678      -119.1227
  18   1.0000      -2.844000       -77.3892
  19   1.0000      -2.843280       -77.3696
  20   1.0000      -2.840073       -77.2823
  21   1.0000      -2.840073       -77.2823
  22   1.0000      -2.840071       -77.2823
  23   1.0000      -2.840071       -77.2823
  24   1.0000      -2.833543       -77.1046
  25   1.0000      -2.829440       -76.9930
  26   1.0000      -2.829440       -76.9930
  27   1.0000      -0.329012        -8.9529
  28   1.0000      -0.308893        -8.4054
  29   1.0000      -0.308893        -8.4054
  30   1.0000      -0.295112        -8.0304
  31   1.0000      -0.293936        -7.9984
  32   1.0000      -0.293936        -7.9984
  33   1.0000      -0.291386        -7.9290
  34   1.0000      -0.291373        -7.9287
  35   1.0000      -0.289793        -7.8857
  36   1.0000      -0.289781        -7.8853
  37   1.0000      -0.275877        -7.5070
  38   1.0000      -0.275860        -7.5065
  39   1.0000      -0.265182        -7.2160
  40   1.0000      -0.265182        -7.2160
  41   1.0000      -0.263401        -7.1675
  42   1.0000      -0.247083        -6.7235
  43   1.0000      -0.205852        -5.6015
  44   0.0000      -0.075483        -2.0540
  45   0.0000      -0.042236        -1.1493
  46   0.0000      -0.042236        -1.1493
  47   0.0000      -0.028404        -0.7729
  48   0.0000      -0.011748        -0.3197

                 SPIN DOWN ORBITALS
  NO   OCC          E(Eh)            E(eV)
   0   1.0000    -323.265025     -8796.4885
   1   1.0000    -323.265021     -8796.4884
   2   1.0000    -323.255416     -8796.2271
   3   1.0000     -39.042119     -1062.3901
   4   1.0000     -39.042105     -1062.3897
   5   1.0000     -39.035055     -1062.1979
   6   1.0000     -34.155597      -929.4210
   7   1.0000     -34.155594      -929.4210
   8   1.0000     -34.154452      -929.3899
   9   1.0000     -34.154452      -929.3899
  10   1.0000     -34.154450      -929.3898
  11   1.0000     -34.154450      -929.3898
  12   1.0000     -34.148177      -929.2191
  13   1.0000     -34.146933      -929.1853
  14   1.0000     -34.146933      -929.1853
  15   1.0000      -4.386852      -119.3723
  16   1.0000      -4.386849      -119.3722
  17   1.0000      -4.378460      -119.1440
  18   1.0000      -2.843938       -77.3875
  19   1.0000      -2.843119       -77.3652
  20   1.0000      -2.839877       -77.2770
  21   1.0000      -2.839877       -77.2770
  22   1.0000      -2.839868       -77.2767
  23   1.0000      -2.839868       -77.2767
  24   1.0000      -2.833953       -77.1158
  25   1.0000      -2.830158       -77.0125
  26   1.0000      -2.830158       -77.0125
  27   1.0000      -0.328854        -8.9486
  28   1.0000      -0.308363        -8.3910
  29   1.0000      -0.308363        -8.3910
  30   1.0000      -0.294294        -8.0081
  31   1.0000      -0.292716        -7.9652
  32   1.0000      -0.292716        -7.9652
  33   1.0000      -0.290263        -7.8985
  34   1.0000      -0.290250        -7.8981
  35   1.0000      -0.288490        -7.8502
  36   1.0000      -0.288478        -7.8499
  37   1.0000      -0.276196        -7.5157
  38   1.0000      -0.276178        -7.5152
  39   1.0000      -0.264634        -7.2011
  40   1.0000      -0.264634        -7.2011
  41   1.0000      -0.260569        -7.0904
  42   1.0000      -0.233259        -6.3473
  43   0.0000      -0.142578        -3.8797
  44   0.0000      -0.059224        -1.6116
  45   0.0000      -0.033631        -0.9151
  46   0.0000      -0.033631        -0.9151
  47   0.0000      -0.006651        -0.1810

MULLIKEN ATOMIC CHARGES AND SPIN POPULATIONS
--------------------------------------------
   0 Cu:   -0.593530    0.181767
   1 Cu:    0.296766    0.409117
   2 Cu:    0.296764    0.409116
Sum of atomic charges         :   -0.0000000

LOEWDIN ATOMIC CHARGES AND SPIN POPULATIONS
-------------------------------------------
   0 Cu:   -0.228770    0.362776
   1 Cu:    0.114385    0.318612
   2 Cu:    0.114385    0.318612

  Mayer bond orders larger than 0.100000
B(  0-Cu,  1-Cu) :   0.6562 B(  0-Cu,  2-Cu) :   0.6562 B(  1-Cu,  2-Cu) :   0.1491

Dispersion correction           -0.000106165
FINAL SINGLE POINT ENERGY     -4921.475883870106

DIPOLE MOMENT
-------------
                                X             Y             Z
Electronic contribution:      0.00000       0.00000       0.00000
Nuclear contribution   :      0.00000      -0.00000       0.00000
                        -----------------------------------------
Total Dipole Moment    :      0.00000       0.00000       0.00000
                        -----------------------------------------
Magnitude (a.u.)       :      0.00000
Magnitude (Debye)      :      0.00000

VIBRATIONAL FREQUENCIES
-----------------------

Scaling factor for frequencies =  1.000000000 (already applied!)

   0:         0.00 cm**-1
   1:         0.00 cm**-1
   2:         0.00 cm**-1
   3:         0.00 cm**-1
   4:         0.00 cm**-1
   5:         0.00 cm**-1
   6:       -30.07 cm**-1 ***imaginary mode***
   7:       166.66 cm**-1
   8:       270.54 cm**-1

IR SPECTRUM
-----------

 Mode    freq (cm**-1)   T**2         TX         TY         TZ
-------------------------------------------------------------------
   7:       166.66    0.000000  (  0.000045  -0.000082   0.000065)
   8:       270.54    1.732746  (  0.000005  -0.000041   1.316338)

--------------------------
THERMOCHEMISTRY AT 298.15K
--------------------------

Temperature         ... 298.15 K
Pressure            ... 1.00 atm
Total Mass          ... 190.65 AMU
The molecule is recognized as being linear

Throughout the following assumptions are being made:
  (1) The electronic state is orbitally nondegenerate
      but the spin degeneracy is treated
  (2) There are no thermally accessible electronically excited states
  (3) Hindered rotations indicated by low frequency modes are not
      treated as such but are treated as vibrations and this may
      cause some error
  (4) All equations used are the standard statistical mechanics
      equations for an ideal gas
  (5) All vibrations are strictly harmonic

freq.     166.66  E(vib)   ...       0.39
freq.     270.54  E(vib)   ...       0.29

------------
INNER ENERGY
------------

The inner energy is: U= E(el) + E(ZPE) + E(vib) + E(rot) + E(trans)
    E(el)   - is the total energy from the electronic structure calculation
              = E(kin-el) + E(nuc-el) + E(el-el) + E(nuc-nuc)
    E(ZPE)  - the the zero temperature vibrational energy from the frequency calculation
    E(vib)  - the the finite temperature correction to E(ZPE) due to population
              of excited vibrational states
    E(rot)  - is the rotational thermal energy
    E(trans)- is the translational thermal energy

Summary of contributions to the inner energy U:
Electronic energy                ...  -4921.47588387 Eh
Zero point energy                ...      0.00099603 Eh       0.63 kcal/mol
Thermal vibrational correction   ...      0.00107319 Eh       0.67 kcal/mol
Thermal rotational correction    ...      0.00094418 Eh       0.59 kcal/mol
Thermal translational correction ...      0.00141627 Eh       0.89 kcal/mol
-----------------------------------------------------------------------
Total thermal energy                  -4921.47145420 Eh

Summary of corrections to the electronic energy:
(perhaps to be used in another calculation)
Total thermal correction                  0.00343364 Eh       2.15 kcal/mol
Non-thermal (ZPE) correction              0.00099603 Eh       0.63 kcal/mol
-----------------------------------------------------------------------
Total correction                          0.00442967 Eh       2.78 kcal/mol

--------
ENTHALPY
--------

The enthalpy is H = U + kB*T
                kB is Boltzmann's constant
Total free energy                 ...  -4921.47145420 Eh
Thermal Enthalpy correction       ...      0.00094421 Eh       0.59 kcal/mol
-----------------------------------------------------------------------
Total Enthalpy                    ...  -4921.47050999 Eh

Note: Rotational entropy computed according to Herzberg
Infrared and Raman Spectra, Chapter V,1, Van Nostrand Reinhold, 1945
Point Group:  Dinfh, Symmetry Number:   2
Rotational constants in cm-1:     0.000000     0.025017     0.025017

Vibrational entropy computed according to the QRRHO of S. Grimme
Chem.Eur.J. 2012 18 9955

-------
ENTROPY
-------

The entropy contributions are T*S = T*(S(el)+S(vib)+S(rot)+S(trans))
     S(el)   - electronic entropy
     S(vib)  - vibrational entropy
     S(rot)  - rotational entropy
     S(trans)- translational entropy
The entropies will be listed as mutliplied by the temperature to get
units of energy

Electronic entropy                ...      0.00065446 Eh      0.41 kcal/mol
Vibrational entropy               ...      0.00192725 Eh      1.21 kcal/mol
Rotational entropy                ...      0.00880813 Eh      5.53 kcal/mol
Translational entropy             ...      0.01978512 Eh     12.42 kcal/mol
-----------------------------------------------------------------------
Final entropy term                ...      0.03117496 Eh     19.56 kcal/mol

In case the symmetry of your molecule has not been determined correctly
or in case you have a reason to use a different symmetry number we print
out the resulting rotational entropy values for sn=1,12 :
 --------------------------------------------------------
|  sn= 1 | S(rot)=      -0.00029203 Eh     -0.18 kcal/mol|
|  sn= 2 | S(rot)=      -0.00094648 Eh     -0.59 kcal/mol|
|  sn= 3 | S(rot)=      -0.00132931 Eh     -0.83 kcal/mol|
|  sn= 4 | S(rot)=      -0.00160094 Eh     -1.00 kcal/mol|
|  sn= 5 | S(rot)=      -0.00181163 Eh     -1.14 kcal/mol|
|  sn= 6 | S(rot)=      -0.00198377 Eh     -1.24 kcal/mol|
|  sn= 7 | S(rot)=      -0.00212932 Eh     -1.34 kcal/mol|
|  sn= 8 | S(rot)=      -0.00225539 Eh     -1.42 kcal/mol|
|  sn= 9 | S(rot)=      -0.00236660 Eh     -1.49 kcal/mol|
|  sn=10 | S(rot)=      -0.00246608 Eh     -1.55 kcal/mol|
|  sn=11 | S(rot)=      -0.00255607 Eh     -1.60 kcal/mol|
|  sn=12 | S(rot)=      -0.00263823 Eh     -1.66 kcal/mol|
 --------------------------------------------------------

-------------------
GIBBS FREE ENERGY
-------------------

The Gibbs free energy is G = H - T*S

Total enthalpy                    ...  -4921.47050999 Eh
Total entropy correction          ...     -0.03117496 Eh    -19.56 kcal/mol
-----------------------------------------------------------------------
Final Gibbs free energy         ...  -4921.50168495 Eh

For completeness - the Gibbs free energy minus the electronic energy
G-E(el)                           ...     -0.02580108 Eh    -16.19 kcal/mol

                             ****ORCA TERMINATED NORMALLY****
TOTAL RUN TIME: 0 days 0 hours 4 minutes 30 seconds 28 msec
