                         Program Version 4.2.0 -  RELEASE  -
|  1> #
|  2> # Cu03C1_D3H M06-D3/Def2-TZVPPD
|  3> #
|  4> ! m06 d3zero def2-tzvppd def2/jk grid4 nofinalgrid opt xyzfile numfreq
|  5>
|  6> *xyz 1 1
|  7> Cu       0.000000    1.349261   -0.000000
|  8> Cu       1.168494   -0.674630    0.000000
|  9> Cu      -1.168494   -0.674630   -0.000000
| 10> *
| 11>
| 12> %maxcore 5000
| 13>
| 14> %pal
| 15> nprocs = 24
| 16> end
| 17>
| 18>
| 19>                          ****END OF INPUT****
 Total Charge           Charge          ....    1
 Multiplicity           Mult            ....    1
 Number of Electrons    NEL             ....   86
Dispersion correction           -0.000001825
FINAL SINGLE POINT ENERGY     -4921.259287146487
Dispersion correction            ... done
Dispersion correction           -0.000001828
FINAL SINGLE POINT ENERGY     -4921.259299848010
Dispersion correction            ... done
Dispersion correction           -0.000001929
FINAL SINGLE POINT ENERGY     -4921.259627932620
Dispersion correction            ... done
                    ***********************HURRAY********************

CARTESIAN COORDINATES (ANGSTROEM)
---------------------------------
  Cu    -0.000000    1.359137    0.000000
  Cu     1.176927   -0.679568    0.000000
  Cu    -1.176927   -0.679568    0.000000

 Multiplicity           Mult            ....    1
 Number of Electrons    NEL             ....   86
 Basis Dimension        Dim             ....  201

ORBITAL ENERGIES
----------------

  NO   OCC          E(Eh)            E(eV)
   0   2.0000    -323.479338     -8802.3203
   1   2.0000    -323.479338     -8802.3203
   2   2.0000    -323.479329     -8802.3200
   3   2.0000     -39.255023     -1068.1835
   4   2.0000     -39.255023     -1068.1835
   5   2.0000     -39.254991     -1068.1826
   6   2.0000     -34.368431      -935.2125
   7   2.0000     -34.368418      -935.2122
   8   2.0000     -34.368418      -935.2122
   9   2.0000     -34.368056      -935.2024
  10   2.0000     -34.368056      -935.2024
  11   2.0000     -34.368048      -935.2021
  12   2.0000     -34.366972      -935.1729
  13   2.0000     -34.366972      -935.1728
  14   2.0000     -34.366965      -935.1727
  15   2.0000      -4.600968      -125.1987
  16   2.0000      -4.600514      -125.1863
  17   2.0000      -4.600513      -125.1863
  18   2.0000      -3.058473       -83.2253
  19   2.0000      -3.056624       -83.1750
  20   2.0000      -3.056620       -83.1749
  21   2.0000      -3.054564       -83.1189
  22   2.0000      -3.054337       -83.1127
  23   2.0000      -3.054328       -83.1125
  24   2.0000      -3.052607       -83.0657
  25   2.0000      -3.052255       -83.0561
  26   2.0000      -3.052252       -83.0560
  27   2.0000      -0.545449       -14.8424
  28   2.0000      -0.527520       -14.3546
  29   2.0000      -0.527498       -14.3540
  30   2.0000      -0.526113       -14.3163
  31   2.0000      -0.515691       -14.0327
  32   2.0000      -0.511713       -13.9244
  33   2.0000      -0.511701       -13.9241
  34   2.0000      -0.495092       -13.4721
  35   2.0000      -0.495085       -13.4719
  36   2.0000      -0.491927       -13.3860
  37   2.0000      -0.490571       -13.3491
  38   2.0000      -0.490525       -13.3479
  39   2.0000      -0.489755       -13.3269
  40   2.0000      -0.489724       -13.3261
  41   2.0000      -0.475316       -12.9340
  42   2.0000      -0.462119       -12.5749
  43   0.0000      -0.280106        -7.6221
  44   0.0000      -0.280097        -7.6218
  45   0.0000      -0.220708        -6.0058
  46   0.0000      -0.185936        -5.0596
  47   0.0000      -0.169236        -4.6051

MULLIKEN ATOMIC CHARGES
-----------------------
   0 Cu:    0.333432
   1 Cu:    0.333283
   2 Cu:    0.333284
Sum of atomic charges:    1.0000000

LOEWDIN ATOMIC CHARGES
----------------------
   0 Cu:    0.333363
   1 Cu:    0.333318
   2 Cu:    0.333318

  Mayer bond orders larger than 0.100000
B(  0-Cu,  1-Cu) :   0.5418 B(  0-Cu,  2-Cu) :   0.5418 B(  1-Cu,  2-Cu) :   0.5419

Dispersion correction           -0.000001933
FINAL SINGLE POINT ENERGY     -4921.259638672923

DIPOLE MOMENT
-------------
                                X             Y             Z
Electronic contribution:      0.00000       0.00014       0.00000
Nuclear contribution   :      0.00000       0.00000       0.00000
                        -----------------------------------------
Total Dipole Moment    :      0.00000       0.00014       0.00000
                        -----------------------------------------
Magnitude (a.u.)       :      0.00014
Magnitude (Debye)      :      0.00036

VIBRATIONAL FREQUENCIES
-----------------------

Scaling factor for frequencies =  1.000000000 (already applied!)

   0:         0.00 cm**-1
   1:         0.00 cm**-1
   2:         0.00 cm**-1
   3:         0.00 cm**-1
   4:         0.00 cm**-1
   5:         0.00 cm**-1
   6:       179.86 cm**-1
   7:       181.08 cm**-1
   8:       261.05 cm**-1

IR SPECTRUM
-----------

 Mode    freq (cm**-1)   T**2         TX         TY         TZ
-------------------------------------------------------------------
   6:       179.86    1.906461  (  0.000242   1.380746   0.000106)
   7:       181.08    1.906310  ( -1.380692   0.000277   0.000116)
   8:       261.05    0.000028  (  0.000004  -0.005278  -0.000090)

--------------------------
THERMOCHEMISTRY AT 298.15K
--------------------------

Temperature         ... 298.15 K
Pressure            ... 1.00 atm
Total Mass          ... 190.65 AMU

Throughout the following assumptions are being made:
  (1) The electronic state is orbitally nondegenerate
  (2) There are no thermally accessible electronically excited states
  (3) Hindered rotations indicated by low frequency modes are not
      treated as such but are treated as vibrations and this may
      cause some error
  (4) All equations used are the standard statistical mechanics
      equations for an ideal gas
  (5) All vibrations are strictly harmonic

freq.     179.86  E(vib)   ...       0.37
freq.     181.08  E(vib)   ...       0.37
freq.     261.05  E(vib)   ...       0.30

------------
INNER ENERGY
------------

The inner energy is: U= E(el) + E(ZPE) + E(vib) + E(rot) + E(trans)
    E(el)   - is the total energy from the electronic structure calculation
              = E(kin-el) + E(nuc-el) + E(el-el) + E(nuc-nuc)
    E(ZPE)  - the the zero temperature vibrational energy from the frequency calculation
    E(vib)  - the the finite temperature correction to E(ZPE) due to population
              of excited vibrational states
    E(rot)  - is the rotational thermal energy
    E(trans)- is the translational thermal energy

Summary of contributions to the inner energy U:
Electronic energy                ...  -4921.25963867 Eh
Zero point energy                ...      0.00141701 Eh       0.89 kcal/mol
Thermal vibrational correction   ...      0.00165517 Eh       1.04 kcal/mol
Thermal rotational correction    ...      0.00141627 Eh       0.89 kcal/mol
Thermal translational correction ...      0.00141627 Eh       0.89 kcal/mol
-----------------------------------------------------------------------
Total thermal energy                  -4921.25373395 Eh

Summary of corrections to the electronic energy:
(perhaps to be used in another calculation)
Total thermal correction                  0.00448772 Eh       2.82 kcal/mol
Non-thermal (ZPE) correction              0.00141701 Eh       0.89 kcal/mol
-----------------------------------------------------------------------
Total correction                          0.00590472 Eh       3.71 kcal/mol

--------
ENTHALPY
--------

The enthalpy is H = U + kB*T
                kB is Boltzmann's constant
Total free energy                 ...  -4921.25373395 Eh
Thermal Enthalpy correction       ...      0.00094421 Eh       0.59 kcal/mol
-----------------------------------------------------------------------
Total Enthalpy                    ...  -4921.25278974 Eh

Note: Rotational entropy computed according to Herzberg
Infrared and Raman Spectra, Chapter V,1, Van Nostrand Reinhold, 1945
Point Group:  C2v, Symmetry Number:   2
Rotational constants in cm-1:     0.095753     0.095734     0.047872

Vibrational entropy computed according to the QRRHO of S. Grimme
Chem.Eur.J. 2012 18 9955

-------
ENTROPY
-------

The entropy contributions are T*S = T*(S(el)+S(vib)+S(rot)+S(trans))
     S(el)   - electronic entropy
     S(vib)  - vibrational entropy
     S(rot)  - rotational entropy
     S(trans)- translational entropy
The entropies will be listed as mutliplied by the temperature to get
units of energy

Electronic entropy                ...      0.00000000 Eh      0.00 kcal/mol
Vibrational entropy               ...      0.00299223 Eh      1.88 kcal/mol
Rotational entropy                ...      0.01250627 Eh      7.85 kcal/mol
Translational entropy             ...      0.01978512 Eh     12.42 kcal/mol
-----------------------------------------------------------------------
Final entropy term                ...      0.03528362 Eh     22.14 kcal/mol

In case the symmetry of your molecule has not been determined correctly
or in case you have a reason to use a different symmetry number we print
out the resulting rotational entropy values for sn=1,12 :
 --------------------------------------------------------
|  sn= 1 | S(rot)=       0.01316073 Eh      8.26 kcal/mol|
|  sn= 2 | S(rot)=       0.01250627 Eh      7.85 kcal/mol|
|  sn= 3 | S(rot)=       0.01212344 Eh      7.61 kcal/mol|
|  sn= 4 | S(rot)=       0.01185182 Eh      7.44 kcal/mol|
|  sn= 5 | S(rot)=       0.01164113 Eh      7.30 kcal/mol|
|  sn= 6 | S(rot)=       0.01146899 Eh      7.20 kcal/mol|
|  sn= 7 | S(rot)=       0.01132344 Eh      7.11 kcal/mol|
|  sn= 8 | S(rot)=       0.01119736 Eh      7.03 kcal/mol|
|  sn= 9 | S(rot)=       0.01108615 Eh      6.96 kcal/mol|
|  sn=10 | S(rot)=       0.01098667 Eh      6.89 kcal/mol|
|  sn=11 | S(rot)=       0.01089668 Eh      6.84 kcal/mol|
|  sn=12 | S(rot)=       0.01081453 Eh      6.79 kcal/mol|
 --------------------------------------------------------

-------------------
GIBBS FREE ENERGY
-------------------

The Gibbs free energy is G = H - T*S

Total enthalpy                    ...  -4921.25278974 Eh
Total entropy correction          ...     -0.03528362 Eh    -22.14 kcal/mol
-----------------------------------------------------------------------
Final Gibbs free energy         ...  -4921.28807336 Eh

For completeness - the Gibbs free energy minus the electronic energy
G-E(el)                           ...     -0.02843469 Eh    -17.84 kcal/mol

                             ****ORCA TERMINATED NORMALLY****
TOTAL RUN TIME: 0 days 0 hours 4 minutes 23 seconds 578 msec
